
 Primary working directories    : /mnt/SSD/student17
 Secondary working directories  : /mnt/SSD/student17
 Wavefunction directory         : /home/student17/wfu/
 Main file repository           : /mnt/SSD/student17/

 ARCHNAME  : Linux/x86_64
 FC        : /usr/bin/gfortran
 FCVERSION : 4.7.2
 BLASLIB   : -L/opt/intel/mkl/lib/intel64 -lmkl_intel_ilp64 -lmkl_sequential -lmkl_core
 id        : plat

 Nodes     nprocs
 debserv      1
 ga_uses_ma=false, calling ma_init with nominal heap.
 GA-space will be limited to   8.0 MW (determined by -G option)

 Using customized tuning parameters: mindgm=12; mindgv=24; mindgc=8; mindgr=1; noblas=0; mincuda=1000; minvec=7
 default implementation of scratch files=df  

 ***,N2F2 CIS GEOMETRY (C2h)
 rnn=1.223,ang                                                                   !define N-N distance
 rnf=1.398,ang                                                                   !define N-F distance
 alpha=114.5;                                                                    !define FNN angle
 geometry={N1
           N2,N1,rnn
           F1,N1,rnf,N2,alpha
           F2,N2,rnf,N1,alpha,F1,180}
 basis=vtz                                                                       !cc-pVTZ basis set
 $method=[ccsd(t)]                                                               !all methods to use
 do i=1,#method                                                                  !loop over requested methods
 $method(i)                                                                      !perform calculation for given methods
 e(i)=energy                                                                     !save energy in variable e
 enddo                                                                           !end loop over methods
 table,method,e                                                                  !print a table with results
 title,Results for n2f2, basis=$basis                                            !title of table
 

 Variables initialized (661), CPU time= 0.00 sec
 Commands  initialized (460), CPU time= 0.00 sec, 486 directives.
 Default parameters read. Elapsed time= 0.01 sec

 Checking input...
 Passed
1


                                         ***  PROGRAM SYSTEM MOLPRO  ***
                         Copyright, University College Cardiff Consultants Limited, 2008

                                    Version 2010.1 linked 30 Ноя 2013 12:52


 **********************************************************************************************************************************
 LABEL *   N2F2 CIS GEOMETRY (C2h)                                                       
 Linux-3.2.0-4-amd64/debserv(x86_64) 64 bit mpp version                                  DATE: 03-Jun-17          TIME: 15:54:30  
 **********************************************************************************************************************************

 SHA1:             fd122acbd35ef3619fab5330ac0556b6c1fa4be2
 **********************************************************************************************************************************
 SETTING RNN            =         1.22300000  ANG                             
 SETTING RNF            =         1.39800000  ANG                             
 SETTING ALPHA          =       114.50000000                                  

 Variable memory set to    8000000 words,  buffer space   230000 words

 SETTING BASIS          =    VTZ
 SETTING METHOD         =    CCSD(T)

 DO I                   =         1.00000000   


 Recomputing integrals since basis changed


 Using spherical harmonics

 Library entry N      S cc-pVTZ              selected for orbital group  1
 Library entry N      P cc-pVTZ              selected for orbital group  1
 Library entry N      D cc-pVTZ              selected for orbital group  1
 Library entry N      F cc-pVTZ              selected for orbital group  1
 Library entry F      S cc-pVTZ              selected for orbital group  2
 Library entry F      P cc-pVTZ              selected for orbital group  2
 Library entry F      D cc-pVTZ              selected for orbital group  2
 Library entry F      F cc-pVTZ              selected for orbital group  2

1PROGRAM * SEWARD (Integral evaluation for generally contracted gaussian basis sets)     Author: Roland Lindh, 1990

 Geometry written to block  1 of record 700

 Orientation using atomic masses  
 Molecule type: Asymmetric top,     Order of principal axis = 2
 Symmetry elements: Z,XY
 Rotational constants:      94.5775189      4.1925713      4.0146060 GHz  (calculated with average atomic masses)

 Point group  C2h 



 ATOMIC COORDINATES

 NR  ATOM    CHARGE       X              Y              Z

   1  N1      7.00    0.827345747   -0.806743658    0.000000000
   2  N2      7.00   -0.827345747    0.806743658    0.000000000
   3  F1      9.00    3.290020881    0.149569374    0.000000000
   4  F2      9.00   -3.290020881   -0.149569374    0.000000000

 Bond lengths in Bohr (Angstrom)

 1-2  2.311135059  1-3  2.641837132  2-4  2.641837132
     ( 1.223000000)     ( 1.398000000)     ( 1.398000000)

 Bond angles

  1-2-4  114.50000000   2-1-3  114.50000000

 NUCLEAR CHARGE:                   32
 NUMBER OF PRIMITIVE AOS:         188
 NUMBER OF SYMMETRY AOS:          168
 NUMBER OF CONTRACTIONS:          120   (  40Ag  +  20Au  +  40Bu  +  20Bg  )
 NUMBER OF CORE ORBITALS:           4   (   2Ag  +   0Au  +   2Bu  +   0Bg  )
 NUMBER OF VALENCE ORBITALS:       16   (   6Ag  +   2Au  +   6Bu  +   2Bg  )


 NUCLEAR REPULSION ENERGY  111.41261390


 Eigenvalues of metric

         1 0.539E-02 0.998E-02 0.213E-01 0.280E-01 0.384E-01 0.421E-01 0.531E-01 0.651E-01
         2 0.436E-01 0.526E-01 0.167E+00 0.326E+00 0.395E+00 0.471E+00 0.495E+00 0.542E+00
         3 0.142E-02 0.284E-02 0.643E-02 0.172E-01 0.403E-01 0.493E-01 0.526E-01 0.614E-01
         4 0.293E-01 0.523E-01 0.811E-01 0.140E+00 0.292E+00 0.421E+00 0.466E+00 0.532E+00


 Contracted 2-electron integrals neglected if value below      1.0D-11
 AO integral compression algorithm  1   Integral accuracy      1.0D-11

     44.040 MB (compressed) written to integral file ( 55.1%)

     Node minimum: 44.040 MB, node maximum: 44.040 MB


 NUMBER OF SORTED TWO-ELECTRON INTEGRALS:    6853430.     BUFFER LENGTH:  32768
 NUMBER OF SEGMENTS:   1  SEGMENT LENGTH:    6853430      RECORD LENGTH: 524288

 Memory used in sort:       7.41 MW

 SORT1 READ     9968456. AND WROTE     6853365. INTEGRALS IN     20 RECORDS. CPU TIME:     0.12 SEC, REAL TIME:     0.18 SEC
 SORT2 READ     6853365. AND WROTE     6853430. INTEGRALS IN    168 RECORDS. CPU TIME:     0.15 SEC, REAL TIME:     0.21 SEC

 FILE SIZES:   FILE 1:    33.4 MBYTE,  FILE 4:    83.9 MBYTE,   TOTAL:    117.3 MBYTE

 OPERATOR DM      FOR CENTER  0  COORDINATES:    0.000000    0.000000    0.000000


 **********************************************************************************************************************************
 DATASETS  * FILE   NREC   LENGTH (MB)   RECORD NAMES
              1      19       33.44       500      610      700      900      950      970     1000      129      960     1100   
                                          VAR    BASINP    GEOM    SYMINP    ZMAT    AOBASIS   BASIS     P2S    ABASIS      S 
                                         1400     1410     1200     1210     1080     1600     1650     1300     1700   
                                           T        V       H0       H01     AOSYM     SMH    MOLCAS    ERIS     OPER   

 PROGRAMS   *        TOTAL       INT
 CPU TIMES  *         1.13      1.09
 REAL TIME  *         1.30 SEC
 DISK USED  *       161.89 MB      
 GA USED    *         0.00 MB       (max)       0.00 MB       (current)
 **********************************************************************************************************************************


1PROGRAM * CCSD (Closed-shell coupled cluster)     Authors: C. Hampel, H.-J. Werner, 1991, M. Deegan, P.J. Knowles, 1992


 The number of valence orbitals is .le. 0.
 One possible cause of this is that there are no orbitals available, ie you might have forgotten
 to do a Hartree-Fock calculation. Another possiblity is that the number of electrons is .le. half
 the number of uncorrelated core orbitals.

 GLOBAL ERROR fehler on processor   0                                         
