
 Primary working directories    : /mnt/SSD/student17
 Secondary working directories  : /mnt/SSD/student17
 Wavefunction directory         : /home/student17/wfu/
 Main file repository           : /mnt/SSD/student17/

 ARCHNAME  : Linux/x86_64
 FC        : /usr/bin/gfortran
 FCVERSION : 4.7.2
 BLASLIB   : -L/opt/intel/mkl/lib/intel64 -lmkl_intel_ilp64 -lmkl_sequential -lmkl_core
 id        : plat

 Nodes     nprocs
 debserv      1
 ga_uses_ma=false, calling ma_init with nominal heap.
 GA-space will be limited to   8.0 MW (determined by -G option)

 Using customized tuning parameters: mindgm=12; mindgv=24; mindgc=8; mindgr=1; noblas=0; mincuda=1000; minvec=7
 default implementation of scratch files=df  

 basis = vdz
 
 geometry = {H1,
             O1, H1, rOH,
             O2, O1, rOO, H1, alpha,
             H2, O2, rOH, O1, alpha, H1, beta}
 
 rOH = 0.7 Ang
 rOO = 2 Ang
 alpha = 90 Degree
 beta = 90 Degree
 
 hf                                                                              ! do HF-calculation
 mp2                                                                             ! do MP2-calculation after HF
 optg                                                                            ! optimize geometry
 
 text, geometry
 show, rOH, rOO, alpha, beta
 
 e_mp2 = energy                                                                  ! saving energy
 
 do i = 1, 36                                                                    ! going over beta in 10-degree steps
 beta = -180 + (i - 1) * 10
 hf
 mp2
 beta_int_rot(i) = beta
 e_int_rot(i) = (energy - e_mp2) * 2625.5                                        ! from hartree to kj/mol
 enddo
 
 do i = 1, 36                                                                    ! going over beta in 10-degree steps
 beta = -180 + (i - 1) * 10
 hf
 mp2
 optg; inactive, beta                                                            ! additionally optimize geometry for
 e_int_rot_optg(i) = (energy - e_mp2) * 2625.5                                   ! from hartree to kj/mol
 enddo
 
 table, beta_int_rot,e_int_rot, e_int_rot_optg
 save h2o2.tab, new
 
 

 Variables initialized (661), CPU time= 0.00 sec
 Commands  initialized (460), CPU time= 0.00 sec, 486 directives.
 Default parameters read. Elapsed time= 0.02 sec

 Checking input...
 Passed
1


                                         ***  PROGRAM SYSTEM MOLPRO  ***
                         Copyright, University College Cardiff Consultants Limited, 2008

                                    Version 2010.1 linked 30 Ноя 2013 12:52


 **********************************************************************************************************************************
 LABEL *                                                                                 
 Linux-3.2.0-4-amd64/debserv(x86_64) 64 bit mpp version                                  DATE: 25-Apr-17          TIME: 12:02:17  
 **********************************************************************************************************************************

 SHA1:             fd122acbd35ef3619fab5330ac0556b6c1fa4be2
 **********************************************************************************************************************************

 Variable memory set to    8000000 words,  buffer space   230000 words

 SETTING BASIS          =    VDZ
 SETTING ROH            =         0.70000000  ANG                             
 SETTING ROO            =         2.00000000  ANG                             
 SETTING ALPHA          =        90.00000000  DEGREE                          
 SETTING BETA           =        90.00000000  DEGREE                          


 Recomputing integrals since basis changed


 Using spherical harmonics

 Library entry H      S cc-pVDZ              selected for orbital group  1
 Library entry H      P cc-pVDZ              selected for orbital group  1
 Library entry O      S cc-pVDZ              selected for orbital group  2
 Library entry O      P cc-pVDZ              selected for orbital group  2
 Library entry O      D cc-pVDZ              selected for orbital group  2

1PROGRAM * SEWARD (Integral evaluation for generally contracted gaussian basis sets)     Author: Roland Lindh, 1990

 Geometry written to block  1 of record 700

 Orientation using atomic masses  
 Molecule type: Asymmetric top,     Order of principal axis = 2
 Symmetry elements: XY
 Rotational constants:     544.0996535     14.6448564     14.6450283 GHz  (calculated with average atomic masses)

 Point group  C2  



 ATOMIC COORDINATES

 NR  ATOM    CHARGE       X              Y              Z

   1  H1      1.00    1.916696991    0.878776642   -0.879932205
   2  H2      1.00   -1.916696991   -0.878776642   -0.879932205
   3  O1      8.00    1.888890953   -0.056176679    0.055434508
   4  O2      8.00   -1.888890953    0.056176679    0.055434508

 Bond lengths in Bohr (Angstrom)

 1-3  1.322808292  2-4  1.322808292
     ( 0.700000000)     ( 0.700000000)

 NUCLEAR CHARGE:                   18
 NUMBER OF PRIMITIVE AOS:          68
 NUMBER OF SYMMETRY AOS:           66
 NUMBER OF CONTRACTIONS:           38   (  19A   +  19B   )
 NUMBER OF CORE ORBITALS:           2   (   1A   +   1B   )
 NUMBER OF VALENCE ORBITALS:       10   (   5A   +   5B   )


 NUCLEAR REPULSION ENERGY   33.26202637


 Eigenvalues of metric

         1 0.134E-01 0.261E-01 0.137E+00 0.194E+00 0.202E+00 0.211E+00 0.307E+00 0.326E+00
         2 0.128E-01 0.223E-01 0.957E-01 0.139E+00 0.179E+00 0.197E+00 0.307E+00 0.323E+00


 Contracted 2-electron integrals neglected if value below      1.0D-11
 AO integral compression algorithm  1   Integral accuracy      1.0D-11

     1.311 MB (compressed) written to integral file ( 50.2%)

     Node minimum: 1.311 MB, node maximum: 1.311 MB


 NUMBER OF SORTED TWO-ELECTRON INTEGRALS:     144590.     BUFFER LENGTH:  32768
 NUMBER OF SEGMENTS:   1  SEGMENT LENGTH:     144590      RECORD LENGTH: 524288

 Memory used in sort:       0.70 MW

 SORT1 READ      264728. AND WROTE      123438. INTEGRALS IN      1 RECORDS. CPU TIME:     0.00 SEC, REAL TIME:     0.00 SEC
 SORT2 READ      123438. AND WROTE      144590. INTEGRALS IN      5 RECORDS. CPU TIME:     0.01 SEC, REAL TIME:     0.01 SEC

 FILE SIZES:   FILE 1:     3.2 MBYTE,  FILE 4:     4.2 MBYTE,   TOTAL:      7.5 MBYTE

 OPERATOR DM      FOR CENTER  0  COORDINATES:    0.000000    0.000000    0.000000


 **********************************************************************************************************************************
 DATASETS  * FILE   NREC   LENGTH (MB)   RECORD NAMES
              1      19        3.24       500      610      700      900      950      970     1000      129      960     1100   
                                          VAR    BASINP    GEOM    SYMINP    ZMAT    AOBASIS   BASIS     P2S    ABASIS      S 
                                         1400     1410     1200     1210     1080     1600     1650     1300     1700   
                                           T        V       H0       H01     AOSYM     SMH    MOLCAS    ERIS     OPER   

 PROGRAMS   *        TOTAL       INT
 CPU TIMES  *         0.10      0.06
 REAL TIME  *         0.12 SEC
 DISK USED  *         9.28 MB      
 GA USED    *         0.00 MB       (max)       0.00 MB       (current)
 **********************************************************************************************************************************

1PROGRAM * RHF-SCF (CLOSED SHELL)       Authors: W. Meyer, H.-J. Werner


 NUMBER OF ELECTRONS:       9+    9-
 CONVERGENCE THRESHOLDS:    1.00E-06 (Density)    1.00E-07 (Energy)
 MAX. NUMBER OF ITERATIONS:       60
 INTERPOLATION TYPE:            DIIS
 INTERPOLATION STEPS:              2 (START)      1 (STEP)
 LEVEL SHIFTS:                  0.00 (CLOSED)  0.00 (OPEN) 



 Orbital guess generated from atomic densities. Full valence occupancy:    6   6

 Molecular orbital dump at record        2100.2

 Initial alpha occupancy:   5   4
 Initial beta  occupancy:   5   4
 Wave function symmetry:    1

 ITERATION    DDIFF          GRAD             ENERGY        2-EL.EN.            DIPOLE MOMENTS         DIIS
    1      0.000D+00      0.000D+00      -150.39112155    178.650489    0.00000    0.00000   -0.93125    0
    2      0.000D+00      0.169D-01      -150.41745763    177.758216    0.00000    0.00000   -0.80179    1
    3      0.398D-01      0.418D-02      -150.41905124    178.236788    0.00000    0.00000   -0.83149    2
    4      0.679D-02      0.122D-02      -150.41924402    178.109067    0.00000    0.00000   -0.83265    3
    5      0.268D-02      0.288D-03      -150.41926059    178.135583    0.00000    0.00000   -0.83362    4
    6      0.479D-03      0.113D-03      -150.41926693    178.133355    0.00000    0.00000   -0.83399    5
    7      0.307D-03      0.528D-04      -150.41926888    178.132526    0.00000    0.00000   -0.83412    6
    8      0.219D-03      0.216D-04      -150.41926922    178.132413    0.00000    0.00000   -0.83414    7
    9      0.625D-04      0.148D-04      -150.41926949    178.132357    0.00000    0.00000   -0.83421    7
   10      0.828D-04      0.672D-05      -150.41926955    178.132336    0.00000    0.00000   -0.83425    8
   11      0.515D-04      0.976D-06      -150.41926955    178.132327    0.00000    0.00000   -0.83426    8
   12      0.538D-05      0.122D-06      -150.41926955    178.132329    0.00000    0.00000   -0.83426    8
   13      0.264D-06      0.170D-07      -150.41926955    178.132330    0.00000    0.00000   -0.83426    0

 Final occupancy:   5   4

 !RHF STATE 1.1 Energy               -150.419269550211
 Nuclear energy                        33.26202637
 One-electron energy                 -272.74746078
 Two-electron energy                   89.06616486
 Virial quotient                       -0.99057826
 !RHF STATE 1.1 Dipole moment           0.00000000     0.00000000    -0.83425559
 Dipole moment /Debye                   0.00000000     0.00000000    -2.12032731

 Orbital energies:

         1.1          2.1          3.1          4.1          5.1          6.1          7.1
    -20.646179    -1.479749    -0.753136    -0.567518    -0.487747     0.213735     1.020065

         1.2          2.2          3.2          4.2          5.2          6.2
    -20.646087    -1.421556    -0.739941    -0.565652    -0.012983     0.276027


 **********************************************************************************************************************************
 DATASETS  * FILE   NREC   LENGTH (MB)   RECORD NAMES
              1      19        3.24       500      610      700      900      950      970     1000      129      960     1100   
                                          VAR    BASINP    GEOM    SYMINP    ZMAT    AOBASIS   BASIS     P2S    ABASIS      S 
                                         1400     1410     1200     1210     1080     1600     1650     1300     1700   
                                           T        V       H0       H01     AOSYM     SMH    MOLCAS    ERIS     OPER   

              2       3        0.30       700     1000     2100   
                                         GEOM     BASIS     RHF  

 PROGRAMS   *        TOTAL        HF       INT
 CPU TIMES  *         0.11      0.01      0.06
 REAL TIME  *         0.13 SEC
 DISK USED  *         9.28 MB      
 GA USED    *         0.00 MB       (max)       0.00 MB       (current)
 **********************************************************************************************************************************


1PROGRAM * MP2 (Closed-shell)     Authors: C. Hampel, H.-J. Werner, 1991, M. Deegan, P.J. Knowles, 1992


 Convergence thresholds:  THRVAR = 1.00D-12  THRDEN = 1.00D-08

 Number of core orbitals:           2 (   1   1 )
 Number of closed-shell orbitals:   7 (   4   3 )
 Number of external orbitals:      29 (  14  15 )

 Molecular orbitals read from record     2100.2  Type=RHF/CANONICAL (state 1.1)

 Number of N-1 electron functions:               7
 Number of N-2 electron functions:              28
 Number of singly external CSFs:               101
 Number of doubly external CSFs:             10404
 Total number of CSFs:                       10506

 Length of J-op  integral file:               0.00 MB
 Length of K-op  integral file:               0.08 MB

 Integral transformation finished. Total CPU:   0.00 sec, npass=  1  Memory used:   0.09 MW

 Memory needed for MP2:                      0.00 MW

 SCS-MP2 correlation energy:           -0.401046705818   (PS=  1.200000  PT=  0.333333)
 SCS-MP2 total energy:               -150.820316256029


  Reference energy                   -150.419269550211
  MP2 singlet pair energy              -0.259729282448
  MP2 triplet pair energy              -0.143632875344
  MP2 correlation energy               -0.403362157792

 !MP2 total energy                   -150.822631708003

 KEXT needed  1 integral passes. Memory used:   0.09 MW  CPU time:      0.00 sec


 Starting Coupled-perturbed Hartree-Fock, convergence threshold= 1.0D-06

 ITER   MIC  DIIS      VAR         VARC       CPU
   1     0     1    0.69D-01    0.13D-02     0.00
   2     7     2    0.41D-03    0.37D-03     0.00
   3     2     3    0.41D-04    0.24D-05     0.00
   4     6     4    0.70D-06    0.16D-06     0.00

 CPHF convergence reached in  4 macroiterations and   15 microiterations.   Accuracy: 7.0278D-07

 CPHF solution written to record  4101.2

 Dipole moments (unrelaxed):            0.00000000     0.00000000    -0.83107471
 Orbital relaxation contribution:      -0.00000000    -0.00000000     0.01878000
 !MP2 dipole moments:                   0.00000000     0.00000000    -0.81229471

 CPU-time for density and lagrangian:                  0.01 sec
 CPU-time for coupled-perturbed hartree-fock:          0.00 sec

 MP2 Gradient info saved on record         5200.1


 **********************************************************************************************************************************
 DATASETS  * FILE   NREC   LENGTH (MB)   RECORD NAMES
              1      21        3.62       500      610      700      900      950      970     1000      129      960     1100   
                                          VAR    BASINP    GEOM    SYMINP    ZMAT    AOBASIS   BASIS     P2S    ABASIS      S 
                                         1400     1410     1200     1210     1080     1600     1650     1300     1700     1380   
                                           T        V       H0       H01     AOSYM     SMH    MOLCAS    ERIS     OPER     JKOP   
                                         5200   
                                          MP2  

              2       5        0.34       700     1000     2100     4100     4101   
                                         GEOM     BASIS     RHF     CPHF     CPHF   

 PROGRAMS   *        TOTAL       MP2        HF       INT
 CPU TIMES  *         0.14      0.02      0.01      0.06
 REAL TIME  *         0.16 SEC
 DISK USED  *         9.28 MB      
 GA USED    *         0.00 MB       (max)       0.00 MB       (current)
 **********************************************************************************************************************************


 PROGRAM * OPT (Geometry optimization)     Authors: F. Eckert and H.-J. Werner


 BFGS update of hessian

 *** Long output written to logfile /home/student17/qc/h2o2.log ***


 Geometry optimization using default procedure for command MP2

 Geometry written to block  1 of record 700

 Making model hessian for Z-matrix coordinates

 Quadratic Steepest Descent - Minimum Search

 Optimization point 1

 Variable                      Last           Current        Next           Gradient       Hessian

 E(MP2) / Hartree            0.00000000  -150.82263171     0.00000000
 ROH / ANG                   0.00000000     0.70000000     0.93720223    -2.92938049     9.19419204
 ROO / ANG                   0.00000000     2.00000000     1.98026786     0.13489507     0.32482233
 ALPHA / DEGREE              0.00000000    90.00000000    89.49003826     0.00028264     0.00003986
 BETA / DEGREE               0.00000000    90.00000000    90.14417647    -0.00008292     0.00000189
 Convergence:                0.00000000  (line search)     0.44989062     1.55189586  (total)

 Optimization point 2

 Variable                      Last           Current        Next           Gradient       Hessian

 E(MP2) / Hartree         -150.82263171  -151.11309794     0.00000000
 ROH / ANG                   0.70000000     0.93720223     0.95297524    -0.18716510    11.55888416
 ROO / ANG                   2.00000000     1.98026786     1.75055284     0.12277854     0.33803084
 ALPHA / DEGREE             90.00000000    89.49003826    84.21333845     0.00027169     0.00002606
 BETA / DEGREE              90.00000000    90.14417647    93.08880862    -0.00008448     0.00000104
 Convergence:                0.00000000  (line search)     0.44771961     0.11956869  (total)

 Optimization point 3

 Variable                      Last           Current        Next           Gradient       Hessian

 E(MP2) / Hartree         -151.11309794  -151.14285145     0.00000000
 ROH / ANG                   0.93720223     0.95297524     0.97695481    -0.09882440    11.75067542
 ROO / ANG                   1.98026786     1.75055284     1.44158665     0.10373946     0.11389568
 ALPHA / DEGREE             89.49003826    84.21333845    89.43200146    -0.00054178     0.00013162
 BETA / DEGREE              90.14417647    93.08880862    97.11357831    -0.00011063     0.00000222
 Convergence:                0.00000000  (line search)     0.59680665     0.08217205  (total)

 Optimization point 4

 Variable                      Last           Current        Next           Gradient       Hessian

 E(MP2) / Hartree         -151.14285145  -151.16143999     0.00000000
 ROH / ANG                   0.95297524     0.97695481     0.98645862     0.02410869    12.12205523
 ROO / ANG                   1.75055284     1.44158665     1.47430408    -0.07842364     0.69442345
 ALPHA / DEGREE             84.21333845    89.43200146   100.40212088    -0.00157916     0.00013697
 BETA / DEGREE              93.08880862    97.11357831   111.79931648    -0.00010798     0.00000491
 Convergence:                0.00000000  (line search)     0.32634486     0.10054720  (total)

 Optimization point 5

 Variable                      Last           Current        Next           Gradient       Hessian

 E(MP2) / Hartree         -151.16143999  -151.16969861     0.00000000
 ROH / ANG                   0.97695481     0.98645862     0.98149019     0.05348609    12.05736040
 ROO / ANG                   1.44158665     1.47430408     1.45873819     0.02421171     0.81243779
 ALPHA / DEGREE             89.43200146   100.40212088    98.81463137     0.00027050     0.00015194
 BETA / DEGREE              97.11357831   111.79931648   116.70802779    -0.00000602     0.00000321
 Convergence:                0.00000000  (line search)     0.09518916     0.03472138  (total)

 Optimization point 6

 Variable                      Last           Current        Next           Gradient       Hessian

 E(MP2) / Hartree         -151.16969861  -151.17037380     0.00000000
 ROH / ANG                   0.98645862     0.98149019     0.97612711     0.03906393     9.75457251
 ROO / ANG                   1.47430408     1.45873819     1.46090237     0.00152677     0.87754455
 ALPHA / DEGREE            100.40212088    98.81463137    98.07324906     0.00000253     0.00016863
 BETA / DEGREE             111.79931648   116.70802779   118.81060581    -0.00000253     0.00000344
 Convergence:                0.00000000  (line search)     0.04041701     0.02068854  (total)

 Optimization point 7

 Variable                      Last           Current        Next           Gradient       Hessian

 E(MP2) / Hartree         -151.17037380  -151.17050726     0.00000000
 ROH / ANG                   0.98149019     0.97612711     0.97085814     0.02056149     4.02946306
 ROO / ANG                   1.45873819     1.46090237     1.45380408     0.00044216     0.80822120
 ALPHA / DEGREE             98.81463137    98.07324906    98.68609494    -0.00008339     0.00017060
 BETA / DEGREE             116.70802779   118.81060581   120.17275412    -0.00000245     0.00000348
 Convergence:                0.00000000  (line search)     0.03096257     0.01188664  (total)

 Optimization point 8

 Variable                      Last           Current        Next           Gradient       Hessian

 E(MP2) / Hartree         -151.17050726  -151.17058600     0.00000000
 ROH / ANG                   0.97612711     0.97085814     0.97018658     0.00205214     3.43106268
 ROO / ANG                   1.46090237     1.45380408     1.45781235    -0.00385967     1.00474805
 ALPHA / DEGREE             98.07324906    98.68609494    98.73061651    -0.00001964     0.00015555
 BETA / DEGREE             118.81060581   120.17275412   118.93600730     0.00000364     0.00000380
 Convergence:                0.00000000  (line search)     0.02292407     0.00258086  (total)

 Optimization point 9

 Variable                      Last           Current        Next           Gradient       Hessian

 E(MP2) / Hartree         -151.17058600  -151.17059552     0.00000000
 ROH / ANG                   0.97085814     0.97018658     0.97044333    -0.00092966     3.66587518
 ROO / ANG                   1.45380408     1.45781235     1.45699544     0.00085228     1.21366691
 ALPHA / DEGREE             98.68609494    98.73061651    98.77207109     0.00000019     0.00015409
 BETA / DEGREE             120.17275412   118.93600730   118.69846024     0.00000076     0.00000364
 Convergence:                0.00000000  (line search)     0.00450901     0.00066890  (total)

 Optimization point10

 Variable                      Last           Current        Next           Gradient       Hessian

 E(MP2) / Hartree         -151.17059552  -151.17059619     0.00000000
 ROH / ANG                   0.97018658     0.97044333     0.97045170     0.00004878     3.88885210
 ROO / ANG                   1.45781235     1.45699544     1.45677552     0.00017193     1.07146478
 ALPHA / DEGREE             98.73061651    98.77207109    98.78209941     0.00000097     0.00015075
 BETA / DEGREE             118.93600730   118.69846024   118.49267250     0.00000053     0.00000301
 Convergence:                0.00000000  (line search)     0.00361991     0.00011394  (total)

 END OF GEOMETRY OPTIMIZATION.    TOTAL CPU:         1.8 SEC

 ITER.   ENERGY(OLD)    ENERGY(NEW)      DE          GRADMAX     GRADNORM    GRADRMS     STEPMAX     STEPLEN     STEPRMS
   1  -150.82263171  -151.11309794    -0.29046623  1.55016139  1.55189586  0.38797396  0.44824725  0.44989062  0.11247265
   2  -151.11309794  -151.14285145    -0.02975351  0.09904351  0.11956869  0.02989217  0.43409847  0.44771961  0.11192990
   3  -151.14285145  -151.16143999    -0.01858853  0.05489656  0.08217205  0.02054301  0.58386148  0.59680665  0.14920166
   4  -151.16143999  -151.16969861    -0.00825862  0.09047902  0.10054720  0.02513680  0.25631448  0.32634486  0.08158622
   5  -151.16969861  -151.17037380    -0.00067519  0.02830362  0.03472138  0.00868035  0.08567317  0.09518916  0.02379729
   6  -151.17037380  -151.17050726    -0.00013346  0.02067174  0.02068854  0.00517213  0.03669691  0.04041701  0.01010425
   7  -151.17050726  -151.17058600    -0.00007874  0.01088067  0.01188664  0.00297166  0.02377397  0.03096257  0.00774064
   8  -151.17058600  -151.17059552    -0.00000953  0.00204245  0.00258086  0.00064522  0.02158530  0.02292407  0.00573102
   9  -151.17059552  -151.17059619    -0.00000066  0.00049195  0.00066890  0.00016723  0.00414598  0.00450901  0.00112725
  10  -151.17059619  -151.17059627    -0.00000008  0.00009098  0.00011394  0.00002848  0.00359167  0.00361991  0.00090498

 Geometry written to block  1 of record 700


 **********************************************************************************************************************************
 DATASETS  * FILE   NREC   LENGTH (MB)   RECORD NAMES
              1      21        3.62       500      610      700      900      950      970     1000      129      960     1100   
                                          VAR    BASINP    GEOM    SYMINP    ZMAT    AOBASIS   BASIS     P2S    ABASIS      S 
                                         1400     1410     1200     1210     1080     1600     1650     1300     1700     1380   
                                           T        V       H0       H01     AOSYM     SMH    MOLCAS    ERIS     OPER     JKOP   
                                         5200   
                                          MP2  

              2       6        0.34       700     1000     2100     4100     4101     9001   
                                         GEOM     BASIS     RHF     CPHF     CPHF    DEN_MP2    

 PROGRAMS   *        TOTAL      OPTG       MP2        HF       INT
 CPU TIMES  *         1.97      1.82      0.02      0.01      0.06
 REAL TIME  *         2.12 SEC
 DISK USED  *         9.37 MB      
 GA USED    *         0.00 MB       (max)       0.00 MB       (current)
 **********************************************************************************************************************************

 *** geometry
 ROH              =         0.97045170 ANG
 ROO              =         1.45677552 ANG
 ALPHA            =        98.78209941 DEGREE
 BETA             =       118.49267250 DEGREE
 SETTING E_MP2          =      -151.17059627  AU                              

 DO I                   =         1.00000000   
 SETTING BETA           =      -180.00000000                                  


 Recomputing integrals since geometry changed

1PROGRAM * SEWARD (Integral evaluation for generally contracted gaussian basis sets)     Author: Roland Lindh, 1990

 Geometry written to block  1 of record 700

 Orientation using atomic masses  
 Molecule type: Asymmetric top,     Order of principal axis = 2
 Symmetry elements: XY
 Rotational constants:     300.1551250     27.0308999     24.7977068 GHz  (calculated with average atomic masses)

 Point group  C2  



 ATOMIC COORDINATES

 NR  ATOM    CHARGE       X              Y              Z

   1  H1      1.00    1.829575824    1.637441556    0.000000000
   2  H2      1.00   -1.829575824   -1.637441556    0.000000000
   3  O1      8.00    1.369537504   -0.137807634    0.000000000
   4  O2      8.00   -1.369537504    0.137807634    0.000000000

 Bond lengths in Bohr (Angstrom)

 1-3  1.833887930  2-4  1.833887930  3-4  2.752906769
     ( 0.970451696)     ( 0.970451696)     ( 1.456775520)

 Bond angles

  1-3-4   98.78209941   2-4-3   98.78209941

 NUCLEAR CHARGE:                   18
 NUMBER OF PRIMITIVE AOS:          68
 NUMBER OF SYMMETRY AOS:           66
 NUMBER OF CONTRACTIONS:           38   (  19A   +  19B   )
 NUMBER OF CORE ORBITALS:           2   (   1A   +   1B   )
 NUMBER OF VALENCE ORBITALS:       10   (   5A   +   5B   )


 NUCLEAR REPULSION ENERGY   36.70494981

 EXTRA SYMMETRY OF AOS IN SYMMETRY 1:   1 1 2 1 1 1 1 1 2 1   1 2 1 1 1 1 1 2 2
 EXTRA SYMMETRY OF AOS IN SYMMETRY 2:   1 1 1 1 2 1 1 1 1 1   2 1 1 2 2 2 1 1 1

 Eigenvalues of metric

         1 0.250E-01 0.458E-01 0.138E+00 0.157E+00 0.204E+00 0.222E+00 0.564E+00 0.585E+00
         2 0.120E-01 0.497E-01 0.913E-01 0.156E+00 0.166E+00 0.185E+00 0.444E+00 0.568E+00


 Contracted 2-electron integrals neglected if value below      1.0D-11
 AO integral compression algorithm  1   Integral accuracy      1.0D-11

     0.786 MB (compressed) written to integral file ( 45.7%)

     Node minimum: 0.786 MB, node maximum: 0.786 MB


 NUMBER OF SORTED TWO-ELECTRON INTEGRALS:     144590.     BUFFER LENGTH:  32768
 NUMBER OF SEGMENTS:   1  SEGMENT LENGTH:     144590      RECORD LENGTH: 524288

 Memory used in sort:       0.70 MW

 SORT1 READ      264728. AND WROTE       77390. INTEGRALS IN      1 RECORDS. CPU TIME:     0.01 SEC, REAL TIME:     0.00 SEC
 SORT2 READ       77390. AND WROTE      144590. INTEGRALS IN      3 RECORDS. CPU TIME:     0.00 SEC, REAL TIME:     0.02 SEC

 FILE SIZES:   FILE 1:     3.0 MBYTE,  FILE 4:     4.2 MBYTE,   TOTAL:      7.3 MBYTE

 OPERATOR DM      FOR CENTER  0  COORDINATES:    0.000000    0.000000    0.000000


 **********************************************************************************************************************************
 DATASETS  * FILE   NREC   LENGTH (MB)   RECORD NAMES
              1      19        3.04       500      610      700      900      950      970     1000      129      960     1100   
                                          VAR    BASINP    GEOM    SYMINP    ZMAT    AOBASIS   BASIS     P2S    ABASIS      S 
                                         1400     1410     1200     1210     1080     1600     1650     1300     1700   
                                           T        V       H0       H01     AOSYM     SMH    MOLCAS    ERIS     OPER   

              2       6        0.34       700     1000     2100     4100     4101     9001   
                                         GEOM     BASIS     RHF     CPHF     CPHF    DEN_MP2    

 PROGRAMS   *        TOTAL       INT      OPTG       MP2        HF       INT
 CPU TIMES  *         2.02      0.05      1.82      0.02      0.01      0.06
 REAL TIME  *         2.18 SEC
 DISK USED  *         9.37 MB      
 GA USED    *         0.00 MB       (max)       0.00 MB       (current)
 **********************************************************************************************************************************

1PROGRAM * RHF-SCF (CLOSED SHELL)       Authors: W. Meyer, H.-J. Werner


 NUMBER OF ELECTRONS:       9+    9-
 CONVERGENCE THRESHOLDS:    3.16E-07 (Density)    1.00E-07 (Energy)
 MAX. NUMBER OF ITERATIONS:       60
 INTERPOLATION TYPE:            DIIS
 INTERPOLATION STEPS:              2 (START)      1 (STEP)
 LEVEL SHIFTS:                  0.00 (CLOSED)  0.00 (OPEN) 



 Molecular orbitals read from record     2100.2  Type=RHF/CANONICAL (state 1.1)

 Molecular orbital dump at record        2101.2

 ITERATION    DDIFF          GRAD             ENERGY        2-EL.EN.            DIPOLE MOMENTS         DIIS
    1      0.000D+00      0.000D+00      -150.69016068    187.947336    0.00000    0.00000   -0.15819    0
    2      0.000D+00      0.269D-01      -150.77251026    187.127871    0.00000    0.00000    0.03337    1
    3      0.499D-01      0.699D-02      -150.78123647    187.597510    0.00000    0.00000    0.02646    2
    4      0.146D-01      0.218D-02      -150.78218469    187.323062    0.00000    0.00000    0.01499    3
    5      0.358D-02      0.935D-03      -150.78243410    187.404450    0.00000    0.00000    0.00390    4
    6      0.190D-02      0.237D-03      -150.78245316    187.394252    0.00000    0.00000    0.00010    5
    7      0.604D-03      0.608D-04      -150.78245442    187.395424    0.00000    0.00000   -0.00007    6
    8      0.139D-03      0.279D-04      -150.78245488    187.395339    0.00000    0.00000   -0.00004    7
    9      0.921D-04      0.104D-04      -150.78245495    187.395369    0.00000    0.00000    0.00000    7
   10      0.493D-04      0.102D-05      -150.78245495    187.395364    0.00000    0.00000    0.00000    7
   11      0.330D-05      0.126D-06      -150.78245495    187.395360    0.00000    0.00000    0.00000    7
   12      0.251D-06      0.330D-07      -150.78245495    187.395362    0.00000    0.00000    0.00000    0

 Final occupancy:   5   4

 !RHF STATE 1.1 Energy               -150.782454951684
 Nuclear energy                        36.70494981
 One-electron energy                 -281.18508578
 Two-electron energy                   93.69768101
 Virial quotient                       -1.00098999
 !RHF STATE 1.1 Dipole moment           0.00000000     0.00000000     0.00000005
 Dipole moment /Debye                   0.00000000     0.00000000     0.00000014

 Orbital energies:

         1.1          2.1          3.1          4.1          5.1          6.1          7.1
    -20.622240    -1.463999    -0.657733    -0.618002    -0.536001     0.190178     0.822019

         1.2          2.2          3.2          4.2          5.2          6.2
    -20.621957    -1.205765    -0.718868    -0.450298     0.192953     0.300035


 **********************************************************************************************************************************
 DATASETS  * FILE   NREC   LENGTH (MB)   RECORD NAMES
              1      19        3.04       500      610      700      900      950      970     1000      129      960     1100   
                                          VAR    BASINP    GEOM    SYMINP    ZMAT    AOBASIS   BASIS     P2S    ABASIS      S 
                                         1400     1410     1200     1210     1080     1600     1650     1300     1700   
                                           T        V       H0       H01     AOSYM     SMH    MOLCAS    ERIS     OPER   

              2       7        0.38       700     1000     2100     4100     4101     9001     2101   
                                         GEOM     BASIS     RHF     CPHF     CPHF    DEN_MP2    RHF  

 PROGRAMS   *        TOTAL        HF       INT      OPTG       MP2        HF       INT
 CPU TIMES  *         2.03      0.00      0.05      1.82      0.02      0.01      0.06
 REAL TIME  *         2.19 SEC
 DISK USED  *         9.37 MB      
 GA USED    *         0.00 MB       (max)       0.00 MB       (current)
 **********************************************************************************************************************************


1PROGRAM * MP2 (Closed-shell)     Authors: C. Hampel, H.-J. Werner, 1991, M. Deegan, P.J. Knowles, 1992


 Convergence thresholds:  THRVAR = 1.00D-12  THRDEN = 1.00D-08

 Number of core orbitals:           2 (   1   1 )
 Number of closed-shell orbitals:   7 (   4   3 )
 Number of external orbitals:      29 (  14  15 )

 Molecular orbitals read from record     2101.2  Type=RHF/CANONICAL (state 1.1)

 Number of N-1 electron functions:               7
 Number of N-2 electron functions:              28
 Number of singly external CSFs:               101
 Number of doubly external CSFs:             10404
 Total number of CSFs:                       10506

 Length of J-op  integral file:               0.00 MB
 Length of K-op  integral file:               0.08 MB

 Integral transformation finished. Total CPU:   0.00 sec, npass=  1  Memory used:   0.09 MW

 Memory needed for MP2:                      0.00 MW

 SCS-MP2 correlation energy:           -0.378859502749   (PS=  1.200000  PT=  0.333333)
 SCS-MP2 total energy:               -151.161314454433


  Reference energy                   -150.782454951684
  MP2 singlet pair energy              -0.239054992850
  MP2 triplet pair energy              -0.147846714636
  MP2 correlation energy               -0.386901707486

 !MP2 total energy                   -151.169356659170


 **********************************************************************************************************************************
 DATASETS  * FILE   NREC   LENGTH (MB)   RECORD NAMES
              1      20        3.30       500      610      700      900      950      970     1000      129      960     1100   
                                          VAR    BASINP    GEOM    SYMINP    ZMAT    AOBASIS   BASIS     P2S    ABASIS      S 
                                         1400     1410     1200     1210     1080     1600     1650     1300     1700     1380   
                                           T        V       H0       H01     AOSYM     SMH    MOLCAS    ERIS     OPER     JKOP   

              2       7        0.38       700     1000     2100     4100     4101     9001     2101   
                                         GEOM     BASIS     RHF     CPHF     CPHF    DEN_MP2    RHF  

 PROGRAMS   *        TOTAL       MP2        HF       INT      OPTG       MP2        HF       INT
 CPU TIMES  *         2.04      0.02      0.00      0.05      1.82      0.02      0.01      0.06
 REAL TIME  *         2.21 SEC
 DISK USED  *         9.37 MB      
 GA USED    *         0.00 MB       (max)       0.00 MB       (current)
 **********************************************************************************************************************************
 SETTING BETA_INT_ROT(1)=      -180.00000000  DEGREE                          
 SETTING E_INT_ROT(1)   =         3.25459401  AU                              

 DO I                   =         2.00000000   
 SETTING BETA           =      -170.00000000                                  


 Recomputing integrals since geometry changed

1PROGRAM * SEWARD (Integral evaluation for generally contracted gaussian basis sets)     Author: Roland Lindh, 1990

 Geometry written to block  1 of record 700

 Orientation using atomic masses  
 Molecule type: Asymmetric top,     Order of principal axis = 2
 Symmetry elements: XY
 Rotational constants:     300.0503872     27.0138101     24.8148570 GHz  (calculated with average atomic masses)

 Point group  C2  



 ATOMIC COORDINATES

 NR  ATOM    CHARGE       X              Y              Z

   1  H1      1.00    1.828145459    1.631409012    0.148598494
   2  H2      1.00   -1.828145459   -1.631409012    0.148598494
   3  O1      8.00    1.369599878   -0.137186343   -0.009361499
   4  O2      8.00   -1.369599878    0.137186343   -0.009361499

 Bond lengths in Bohr (Angstrom)

 1-3  1.833887930  2-4  1.833887930  3-4  2.752906769
     ( 0.970451696)     ( 0.970451696)     ( 1.456775520)

 Bond angles

  1-3-4   98.78209941   2-4-3   98.78209941

 NUCLEAR CHARGE:                   18
 NUMBER OF PRIMITIVE AOS:          68
 NUMBER OF SYMMETRY AOS:           66
 NUMBER OF CONTRACTIONS:           38   (  19A   +  19B   )
 NUMBER OF CORE ORBITALS:           2   (   1A   +   1B   )
 NUMBER OF VALENCE ORBITALS:       10   (   5A   +   5B   )


 NUCLEAR REPULSION ENERGY   36.70537254


 Eigenvalues of metric

         1 0.250E-01 0.459E-01 0.138E+00 0.157E+00 0.204E+00 0.222E+00 0.564E+00 0.585E+00
         2 0.120E-01 0.497E-01 0.913E-01 0.155E+00 0.166E+00 0.185E+00 0.443E+00 0.568E+00


 Contracted 2-electron integrals neglected if value below      1.0D-11
 AO integral compression algorithm  1   Integral accuracy      1.0D-11

     1.311 MB (compressed) written to integral file ( 49.6%)

     Node minimum: 1.311 MB, node maximum: 1.311 MB


 NUMBER OF SORTED TWO-ELECTRON INTEGRALS:     144590.     BUFFER LENGTH:  32768
 NUMBER OF SEGMENTS:   1  SEGMENT LENGTH:     144590      RECORD LENGTH: 524288

 Memory used in sort:       0.70 MW

 SORT1 READ      264728. AND WROTE      123438. INTEGRALS IN      1 RECORDS. CPU TIME:     0.00 SEC, REAL TIME:     0.00 SEC
 SORT2 READ      123438. AND WROTE      144590. INTEGRALS IN      5 RECORDS. CPU TIME:     0.01 SEC, REAL TIME:     0.01 SEC

 FILE SIZES:   FILE 1:     3.2 MBYTE,  FILE 4:     4.2 MBYTE,   TOTAL:      7.4 MBYTE

 OPERATOR DM      FOR CENTER  0  COORDINATES:    0.000000    0.000000    0.000000


 **********************************************************************************************************************************
 DATASETS  * FILE   NREC   LENGTH (MB)   RECORD NAMES
              1      19        3.23       500      610      700      900      950      970     1000      129      960     1100   
                                          VAR    BASINP    GEOM    SYMINP    ZMAT    AOBASIS   BASIS     P2S    ABASIS      S 
                                         1400     1410     1200     1210     1080     1600     1650     1300     1700   
                                           T        V       H0       H01     AOSYM     SMH    MOLCAS    ERIS     OPER   

              2       7        0.38       700     1000     2100     4100     4101     9001     2101   
                                         GEOM     BASIS     RHF     CPHF     CPHF    DEN_MP2    RHF  

 PROGRAMS   *        TOTAL       INT       MP2        HF       INT      OPTG       MP2        HF       INT
 CPU TIMES  *         2.09      0.05      0.02      0.00      0.05      1.82      0.02      0.01      0.06
 REAL TIME  *         2.27 SEC
 DISK USED  *         9.40 MB      
 GA USED    *         0.00 MB       (max)       0.00 MB       (current)
 **********************************************************************************************************************************

1PROGRAM * RHF-SCF (CLOSED SHELL)       Authors: W. Meyer, H.-J. Werner


 NUMBER OF ELECTRONS:       9+    9-
 CONVERGENCE THRESHOLDS:    3.16E-07 (Density)    1.00E-07 (Energy)
 MAX. NUMBER OF ITERATIONS:       60
 INTERPOLATION TYPE:            DIIS
 INTERPOLATION STEPS:              2 (START)      1 (STEP)
 LEVEL SHIFTS:                  0.00 (CLOSED)  0.00 (OPEN) 



 Molecular orbitals read from record     2101.2  Type=RHF/CANONICAL (state 1.1)

 Molecular orbital dump at record        2101.2

 ITERATION    DDIFF          GRAD             ENERGY        2-EL.EN.            DIPOLE MOMENTS         DIIS
    1      0.000D+00      0.000D+00      -150.78010713    187.412207    0.00000    0.00000    0.09954    0
    2      0.000D+00      0.437D-02      -150.78225255    187.387019    0.00000    0.00000    0.13015    1
    3      0.772D-02      0.110D-02      -150.78247627    187.401261    0.00000    0.00000    0.12977    2
    4      0.240D-02      0.258D-03      -150.78249715    187.388415    0.00000    0.00000    0.12706    3
    5      0.530D-03      0.885D-04      -150.78249939    187.397418    0.00000    0.00000    0.12597    4
    6      0.179D-03      0.320D-04      -150.78249966    187.394246    0.00000    0.00000    0.12559    5
    7      0.744D-04      0.941D-05      -150.78249969    187.394715    0.00000    0.00000    0.12559    6
    8      0.186D-04      0.482D-05      -150.78249971    187.394673    0.00000    0.00000    0.12559    7
    9      0.178D-04      0.142D-05      -150.78249971    187.394678    0.00000    0.00000    0.12560    7
   10      0.656D-05      0.156D-06      -150.78249971    187.394678    0.00000    0.00000    0.12560    7
   11      0.476D-06      0.140D-07      -150.78249971    187.394678    0.00000    0.00000    0.12560    7
   12      0.227D-07      0.273D-08      -150.78249971    187.394678    0.00000    0.00000    0.12560    0

 Final occupancy:   5   4

 !RHF STATE 1.1 Energy               -150.782499708995
 Nuclear energy                        36.70537254
 One-electron energy                 -281.18521125
 Two-electron energy                   93.69733900
 Virial quotient                       -1.00099112
 !RHF STATE 1.1 Dipole moment           0.00000000     0.00000000     0.12560010
 Dipole moment /Debye                   0.00000000     0.00000000     0.31922269

 Orbital energies:

         1.1          2.1          3.1          4.1          5.1          6.1          7.1
    -20.622314    -1.464067    -0.659579    -0.616637    -0.535397     0.190157     0.821893

         1.2          2.2          3.2          4.2          5.2          6.2
    -20.622032    -1.205781    -0.718499    -0.450961     0.192917     0.300006


 **********************************************************************************************************************************
 DATASETS  * FILE   NREC   LENGTH (MB)   RECORD NAMES
              1      19        3.23       500      610      700      900      950      970     1000      129      960     1100   
                                          VAR    BASINP    GEOM    SYMINP    ZMAT    AOBASIS   BASIS     P2S    ABASIS      S 
                                         1400     1410     1200     1210     1080     1600     1650     1300     1700   
                                           T        V       H0       H01     AOSYM     SMH    MOLCAS    ERIS     OPER   

              2       7        0.38       700     1000     2100     4100     4101     9001     2101   
                                         GEOM     BASIS     RHF     CPHF     CPHF    DEN_MP2    RHF  

 PROGRAMS   *        TOTAL        HF       INT       MP2        HF       INT      OPTG       MP2        HF       INT
 CPU TIMES  *         2.10      0.01      0.05      0.02      0.00      0.05      1.82      0.02      0.01      0.06
 REAL TIME  *         2.28 SEC
 DISK USED  *         9.40 MB      
 GA USED    *         0.00 MB       (max)       0.00 MB       (current)
 **********************************************************************************************************************************


1PROGRAM * MP2 (Closed-shell)     Authors: C. Hampel, H.-J. Werner, 1991, M. Deegan, P.J. Knowles, 1992


 Convergence thresholds:  THRVAR = 1.00D-12  THRDEN = 1.00D-08

 Number of core orbitals:           2 (   1   1 )
 Number of closed-shell orbitals:   7 (   4   3 )
 Number of external orbitals:      29 (  14  15 )

 Molecular orbitals read from record     2101.2  Type=RHF/CANONICAL (state 1.1)

 Number of N-1 electron functions:               7
 Number of N-2 electron functions:              28
 Number of singly external CSFs:               101
 Number of doubly external CSFs:             10404
 Total number of CSFs:                       10506

 Length of J-op  integral file:               0.00 MB
 Length of K-op  integral file:               0.08 MB

 Integral transformation finished. Total CPU:   0.01 sec, npass=  1  Memory used:   0.09 MW

 Memory needed for MP2:                      0.00 MW

 SCS-MP2 correlation energy:           -0.378881325615   (PS=  1.200000  PT=  0.333333)
 SCS-MP2 total energy:               -151.161381034610


  Reference energy                   -150.782499708995
  MP2 singlet pair energy              -0.239067783111
  MP2 triplet pair energy              -0.147857120168
  MP2 correlation energy               -0.386924903279

 !MP2 total energy                   -151.169424612274


 **********************************************************************************************************************************
 DATASETS  * FILE   NREC   LENGTH (MB)   RECORD NAMES
              1      20        3.49       500      610      700      900      950      970     1000      129      960     1100   
                                          VAR    BASINP    GEOM    SYMINP    ZMAT    AOBASIS   BASIS     P2S    ABASIS      S 
                                         1400     1410     1200     1210     1080     1600     1650     1300     1700     1380   
                                           T        V       H0       H01     AOSYM     SMH    MOLCAS    ERIS     OPER     JKOP   

              2       7        0.38       700     1000     2100     4100     4101     9001     2101   
                                         GEOM     BASIS     RHF     CPHF     CPHF    DEN_MP2    RHF  

 PROGRAMS   *        TOTAL       MP2        HF       INT       MP2        HF       INT      OPTG       MP2        HF       INT
 CPU TIMES  *         2.12      0.02      0.01      0.05      0.02      0.00      0.05      1.82      0.02      0.01      0.06
 REAL TIME  *         2.30 SEC
 DISK USED  *         9.40 MB      
 GA USED    *         0.00 MB       (max)       0.00 MB       (current)
 **********************************************************************************************************************************
 SETTING BETA_INT_ROT(2)=      -170.00000000  DEGREE                          
 SETTING E_INT_ROT(2)   =         3.07618314  AU                              

 DO I                   =         3.00000000   
 SETTING BETA           =      -160.00000000                                  


 Recomputing integrals since geometry changed

1PROGRAM * SEWARD (Integral evaluation for generally contracted gaussian basis sets)     Author: Roland Lindh, 1990

 Geometry written to block  1 of record 700

 Orientation using atomic masses  
 Molecule type: Asymmetric top,     Order of principal axis = 2
 Symmetry elements: XY
 Rotational constants:     299.7419996     26.9631692     24.8659263 GHz  (calculated with average atomic masses)

 Point group  C2  



 ATOMIC COORDINATES

 NR  ATOM    CHARGE       X              Y              Z

   1  H1      1.00    1.823908936    1.613341697    0.296066064
   2  H2      1.00   -1.823908936   -1.613341697    0.296066064
   3  O1      8.00    1.369784109   -0.135334452   -0.018651751
   4  O2      8.00   -1.369784109    0.135334452   -0.018651751

 Bond lengths in Bohr (Angstrom)

 1-3  1.833887930  2-4  1.833887930  3-4  2.752906769
     ( 0.970451696)     ( 0.970451696)     ( 1.456775520)

 Bond angles

  1-3-4   98.78209941   2-4-3   98.78209941

 NUCLEAR CHARGE:                   18
 NUMBER OF PRIMITIVE AOS:          68
 NUMBER OF SYMMETRY AOS:           66
 NUMBER OF CONTRACTIONS:           38   (  19A   +  19B   )
 NUMBER OF CORE ORBITALS:           2   (   1A   +   1B   )
 NUMBER OF VALENCE ORBITALS:       10   (   5A   +   5B   )


 NUCLEAR REPULSION ENERGY   36.70664358


 Eigenvalues of metric

         1 0.249E-01 0.461E-01 0.138E+00 0.157E+00 0.203E+00 0.222E+00 0.564E+00 0.585E+00
         2 0.121E-01 0.496E-01 0.913E-01 0.155E+00 0.167E+00 0.186E+00 0.443E+00 0.569E+00


 Contracted 2-electron integrals neglected if value below      1.0D-11
 AO integral compression algorithm  1   Integral accuracy      1.0D-11

     1.311 MB (compressed) written to integral file ( 50.1%)

     Node minimum: 1.311 MB, node maximum: 1.311 MB


 NUMBER OF SORTED TWO-ELECTRON INTEGRALS:     144590.     BUFFER LENGTH:  32768
 NUMBER OF SEGMENTS:   1  SEGMENT LENGTH:     144590      RECORD LENGTH: 524288

 Memory used in sort:       0.70 MW

 SORT1 READ      264728. AND WROTE      123438. INTEGRALS IN      1 RECORDS. CPU TIME:     0.00 SEC, REAL TIME:     0.00 SEC
 SORT2 READ      123438. AND WROTE      144590. INTEGRALS IN      5 RECORDS. CPU TIME:     0.00 SEC, REAL TIME:     0.01 SEC

 FILE SIZES:   FILE 1:     3.2 MBYTE,  FILE 4:     4.2 MBYTE,   TOTAL:      7.5 MBYTE

 OPERATOR DM      FOR CENTER  0  COORDINATES:    0.000000    0.000000    0.000000


 **********************************************************************************************************************************
 DATASETS  * FILE   NREC   LENGTH (MB)   RECORD NAMES
              1      19        3.23       500      610      700      900      950      970     1000      129      960     1100   
                                          VAR    BASINP    GEOM    SYMINP    ZMAT    AOBASIS   BASIS     P2S    ABASIS      S 
                                         1400     1410     1200     1210     1080     1600     1650     1300     1700   
                                           T        V       H0       H01     AOSYM     SMH    MOLCAS    ERIS     OPER   

              2       7        0.38       700     1000     2100     4100     4101     9001     2101   
                                         GEOM     BASIS     RHF     CPHF     CPHF    DEN_MP2    RHF  

 PROGRAMS   *        TOTAL       INT       MP2        HF       INT       MP2        HF       INT      OPTG       MP2        HF
 CPU TIMES  *         2.16      0.04      0.02      0.01      0.05      0.02      0.00      0.05      1.82      0.02      0.01
 REAL TIME  *         2.36 SEC
 DISK USED  *         9.40 MB      
 GA USED    *         0.00 MB       (max)       0.00 MB       (current)
 **********************************************************************************************************************************

1PROGRAM * RHF-SCF (CLOSED SHELL)       Authors: W. Meyer, H.-J. Werner


 NUMBER OF ELECTRONS:       9+    9-
 CONVERGENCE THRESHOLDS:    3.16E-07 (Density)    1.00E-07 (Energy)
 MAX. NUMBER OF ITERATIONS:       60
 INTERPOLATION TYPE:            DIIS
 INTERPOLATION STEPS:              2 (START)      1 (STEP)
 LEVEL SHIFTS:                  0.00 (CLOSED)  0.00 (OPEN) 



 Molecular orbitals read from record     2101.2  Type=RHF/CANONICAL (state 1.1)

 Molecular orbital dump at record        2101.2

 ITERATION    DDIFF          GRAD             ENERGY        2-EL.EN.            DIPOLE MOMENTS         DIIS
    1      0.000D+00      0.000D+00      -150.78023717    187.412767    0.00000    0.00000    0.22479    0
    2      0.000D+00      0.436D-02      -150.78237774    187.384685    0.00000    0.00000    0.25449    1
    3      0.772D-02      0.110D-02      -150.78260071    187.399739    0.00000    0.00000    0.25412    2
    4      0.241D-02      0.258D-03      -150.78262159    187.385929    0.00000    0.00000    0.25136    3
    5      0.537D-03      0.897D-04      -150.78262383    187.395334    0.00000    0.00000    0.25034    4
    6      0.182D-03      0.322D-04      -150.78262412    187.392230    0.00000    0.00000    0.24993    5
    7      0.763D-04      0.912D-05      -150.78262414    187.392652    0.00000    0.00000    0.24993    6
    8      0.180D-04      0.468D-05      -150.78262416    187.392613    0.00000    0.00000    0.24994    7
    9      0.171D-04      0.139D-05      -150.78262416    187.392618    0.00000    0.00000    0.24995    7
   10      0.635D-05      0.158D-06      -150.78262416    187.392619    0.00000    0.00000    0.24995    7
   11      0.484D-06      0.169D-07      -150.78262416    187.392619    0.00000    0.00000    0.24995    7
   12      0.276D-07      0.394D-08      -150.78262416    187.392619    0.00000    0.00000    0.24995    0

 Final occupancy:   5   4

 !RHF STATE 1.1 Energy               -150.782624157006
 Nuclear energy                        36.70664358
 One-electron energy                 -281.18557713
 Two-electron energy                   93.69630940
 Virial quotient                       -1.00099431
 !RHF STATE 1.1 Dipole moment           0.00000000     0.00000000     0.24994523
 Dipole moment /Debye                   0.00000000     0.00000000     0.63525579

 Orbital energies:

         1.1          2.1          3.1          4.1          5.1          6.1          7.1
    -20.622536    -1.464272    -0.664410    -0.613257    -0.533585     0.190071     0.821516

         1.2          2.2          3.2          4.2          5.2          6.2
    -20.622253    -1.205829    -0.717393    -0.452943     0.192813     0.299925


 **********************************************************************************************************************************
 DATASETS  * FILE   NREC   LENGTH (MB)   RECORD NAMES
              1      19        3.23       500      610      700      900      950      970     1000      129      960     1100   
                                          VAR    BASINP    GEOM    SYMINP    ZMAT    AOBASIS   BASIS     P2S    ABASIS      S 
                                         1400     1410     1200     1210     1080     1600     1650     1300     1700   
                                           T        V       H0       H01     AOSYM     SMH    MOLCAS    ERIS     OPER   

              2       7        0.38       700     1000     2100     4100     4101     9001     2101   
                                         GEOM     BASIS     RHF     CPHF     CPHF    DEN_MP2    RHF  

 PROGRAMS   *        TOTAL        HF       INT       MP2        HF       INT       MP2        HF       INT      OPTG       MP2
 CPU TIMES  *         2.18      0.02      0.04      0.02      0.01      0.05      0.02      0.00      0.05      1.82      0.02
 REAL TIME  *         2.37 SEC
 DISK USED  *         9.40 MB      
 GA USED    *         0.00 MB       (max)       0.00 MB       (current)
 **********************************************************************************************************************************


1PROGRAM * MP2 (Closed-shell)     Authors: C. Hampel, H.-J. Werner, 1991, M. Deegan, P.J. Knowles, 1992


 Convergence thresholds:  THRVAR = 1.00D-12  THRDEN = 1.00D-08

 Number of core orbitals:           2 (   1   1 )
 Number of closed-shell orbitals:   7 (   4   3 )
 Number of external orbitals:      29 (  14  15 )

 Molecular orbitals read from record     2101.2  Type=RHF/CANONICAL (state 1.1)

 Number of N-1 electron functions:               7
 Number of N-2 electron functions:              28
 Number of singly external CSFs:               101
 Number of doubly external CSFs:             10404
 Total number of CSFs:                       10506

 Length of J-op  integral file:               0.00 MB
 Length of K-op  integral file:               0.08 MB

 Integral transformation finished. Total CPU:   0.00 sec, npass=  1  Memory used:   0.09 MW

 Memory needed for MP2:                      0.00 MW

 SCS-MP2 correlation energy:           -0.378944445727   (PS=  1.200000  PT=  0.333333)
 SCS-MP2 total energy:               -151.161568602733


  Reference energy                   -150.782624157006
  MP2 singlet pair energy              -0.239104921871
  MP2 triplet pair energy              -0.147886938452
  MP2 correlation energy               -0.386991860323

 !MP2 total energy                   -151.169616017329


 **********************************************************************************************************************************
 DATASETS  * FILE   NREC   LENGTH (MB)   RECORD NAMES
              1      20        3.49       500      610      700      900      950      970     1000      129      960     1100   
                                          VAR    BASINP    GEOM    SYMINP    ZMAT    AOBASIS   BASIS     P2S    ABASIS      S 
                                         1400     1410     1200     1210     1080     1600     1650     1300     1700     1380   
                                           T        V       H0       H01     AOSYM     SMH    MOLCAS    ERIS     OPER     JKOP   

              2       7        0.38       700     1000     2100     4100     4101     9001     2101   
                                         GEOM     BASIS     RHF     CPHF     CPHF    DEN_MP2    RHF  

 PROGRAMS   *        TOTAL       MP2        HF       INT       MP2        HF       INT       MP2        HF       INT      OPTG
 CPU TIMES  *         2.20      0.02      0.02      0.04      0.02      0.01      0.05      0.02      0.00      0.05      1.82
 REAL TIME  *         2.39 SEC
 DISK USED  *         9.40 MB      
 GA USED    *         0.00 MB       (max)       0.00 MB       (current)
 **********************************************************************************************************************************
 SETTING BETA_INT_ROT(3)=      -160.00000000  DEGREE                          
 SETTING E_INT_ROT(3)   =         2.57364917  AU                              

 DO I                   =         4.00000000   
 SETTING BETA           =      -150.00000000                                  


 Recomputing integrals since geometry changed

1PROGRAM * SEWARD (Integral evaluation for generally contracted gaussian basis sets)     Author: Roland Lindh, 1990

 Geometry written to block  1 of record 700

 Orientation using atomic masses  
 Molecule type: Asymmetric top,     Order of principal axis = 2
 Symmetry elements: XY
 Rotational constants:     299.2468553     26.8808292     24.9497695 GHz  (calculated with average atomic masses)

 Point group  C2  



 ATOMIC COORDINATES

 NR  ATOM    CHARGE       X              Y              Z

   1  H1      1.00    1.817026802    1.583331829    0.441280393
   2  H2      1.00   -1.817026802   -1.583331829    0.441280393
   3  O1      8.00    1.370081757   -0.132287185   -0.027800052
   4  O2      8.00   -1.370081757    0.132287185   -0.027800052

 Bond lengths in Bohr (Angstrom)

 1-3  1.833887930  2-4  1.833887930  3-4  2.752906769
     ( 0.970451696)     ( 0.970451696)     ( 1.456775520)

 Bond angles

  1-3-4   98.78209941   2-4-3   98.78209941

 NUCLEAR CHARGE:                   18
 NUMBER OF PRIMITIVE AOS:          68
 NUMBER OF SYMMETRY AOS:           66
 NUMBER OF CONTRACTIONS:           38   (  19A   +  19B   )
 NUMBER OF CORE ORBITALS:           2   (   1A   +   1B   )
 NUMBER OF VALENCE ORBITALS:       10   (   5A   +   5B   )


 NUCLEAR REPULSION ENERGY   36.70877107


 Eigenvalues of metric

         1 0.248E-01 0.464E-01 0.138E+00 0.157E+00 0.202E+00 0.222E+00 0.564E+00 0.584E+00
         2 0.122E-01 0.495E-01 0.912E-01 0.154E+00 0.167E+00 0.186E+00 0.443E+00 0.570E+00


 Contracted 2-electron integrals neglected if value below      1.0D-11
 AO integral compression algorithm  1   Integral accuracy      1.0D-11

     1.311 MB (compressed) written to integral file ( 50.5%)

     Node minimum: 1.311 MB, node maximum: 1.311 MB


 NUMBER OF SORTED TWO-ELECTRON INTEGRALS:     144590.     BUFFER LENGTH:  32768
 NUMBER OF SEGMENTS:   1  SEGMENT LENGTH:     144590      RECORD LENGTH: 524288

 Memory used in sort:       0.70 MW

 SORT1 READ      264728. AND WROTE      123438. INTEGRALS IN      1 RECORDS. CPU TIME:     0.00 SEC, REAL TIME:     0.00 SEC
 SORT2 READ      123438. AND WROTE      144590. INTEGRALS IN      5 RECORDS. CPU TIME:     0.01 SEC, REAL TIME:     0.01 SEC

 FILE SIZES:   FILE 1:     3.2 MBYTE,  FILE 4:     4.2 MBYTE,   TOTAL:      7.5 MBYTE

 OPERATOR DM      FOR CENTER  0  COORDINATES:    0.000000    0.000000    0.000000


 **********************************************************************************************************************************
 DATASETS  * FILE   NREC   LENGTH (MB)   RECORD NAMES
              1      19        3.24       500      610      700      900      950      970     1000      129      960     1100   
                                          VAR    BASINP    GEOM    SYMINP    ZMAT    AOBASIS   BASIS     P2S    ABASIS      S 
                                         1400     1410     1200     1210     1080     1600     1650     1300     1700   
                                           T        V       H0       H01     AOSYM     SMH    MOLCAS    ERIS     OPER   

              2       7        0.38       700     1000     2100     4100     4101     9001     2101   
                                         GEOM     BASIS     RHF     CPHF     CPHF    DEN_MP2    RHF  

 PROGRAMS   *        TOTAL       INT       MP2        HF       INT       MP2        HF       INT       MP2        HF       INT
 CPU TIMES  *         2.26      0.05      0.02      0.02      0.04      0.02      0.01      0.05      0.02      0.00      0.05
 REAL TIME  *         2.45 SEC
 DISK USED  *         9.41 MB      
 GA USED    *         0.00 MB       (max)       0.00 MB       (current)
 **********************************************************************************************************************************

1PROGRAM * RHF-SCF (CLOSED SHELL)       Authors: W. Meyer, H.-J. Werner


 NUMBER OF ELECTRONS:       9+    9-
 CONVERGENCE THRESHOLDS:    3.16E-07 (Density)    1.00E-07 (Energy)
 MAX. NUMBER OF ITERATIONS:       60
 INTERPOLATION TYPE:            DIIS
 INTERPOLATION STEPS:              2 (START)      1 (STEP)
 LEVEL SHIFTS:                  0.00 (CLOSED)  0.00 (OPEN) 



 Molecular orbitals read from record     2101.2  Type=RHF/CANONICAL (state 1.1)

 Molecular orbital dump at record        2101.2

 ITERATION    DDIFF          GRAD             ENERGY        2-EL.EN.            DIPOLE MOMENTS         DIIS
    1      0.000D+00      0.000D+00      -150.78042368    187.411909    0.00000    0.00000    0.34799    0
    2      0.000D+00      0.435D-02      -150.78255424    187.380962    0.00000    0.00000    0.37636    1
    3      0.773D-02      0.110D-02      -150.78277572    187.396854    0.00000    0.00000    0.37594    2
    4      0.241D-02      0.259D-03      -150.78279657    187.382038    0.00000    0.00000    0.37313    3
    5      0.548D-03      0.909D-04      -150.78279882    187.391835    0.00000    0.00000    0.37219    4
    6      0.186D-03      0.320D-04      -150.78279910    187.388826    0.00000    0.00000    0.37177    5
    7      0.779D-04      0.865D-05      -150.78279912    187.389199    0.00000    0.00000    0.37178    6
    8      0.170D-04      0.442D-05      -150.78279914    187.389165    0.00000    0.00000    0.37179    7
    9      0.158D-04      0.134D-05      -150.78279914    187.389170    0.00000    0.00000    0.37179    7
   10      0.600D-05      0.160D-06      -150.78279914    187.389171    0.00000    0.00000    0.37179    7
   11      0.497D-06      0.206D-07      -150.78279914    187.389171    0.00000    0.00000    0.37179    7
   12      0.341D-07      0.521D-08      -150.78279914    187.389171    0.00000    0.00000    0.37179    0

 Final occupancy:   5   4

 !RHF STATE 1.1 Energy               -150.782799136411
 Nuclear energy                        36.70877107
 One-electron energy                 -281.18615575
 Two-electron energy                   93.69458554
 Virial quotient                       -1.00099901
 !RHF STATE 1.1 Dipole moment           0.00000000     0.00000000     0.37179152
 Dipole moment /Debye                   0.00000000     0.00000000     0.94493790

 Orbital energies:

         1.1          2.1          3.1          4.1          5.1          6.1          7.1
    -20.622898    -1.464613    -0.671000    -0.609110    -0.530576     0.189856     0.820893

         1.2          2.2          3.2          4.2          5.2          6.2
    -20.622615    -1.205915    -0.715551    -0.456214     0.192649     0.299813


 **********************************************************************************************************************************
 DATASETS  * FILE   NREC   LENGTH (MB)   RECORD NAMES
              1      19        3.24       500      610      700      900      950      970     1000      129      960     1100   
                                          VAR    BASINP    GEOM    SYMINP    ZMAT    AOBASIS   BASIS     P2S    ABASIS      S 
                                         1400     1410     1200     1210     1080     1600     1650     1300     1700   
                                           T        V       H0       H01     AOSYM     SMH    MOLCAS    ERIS     OPER   

              2       7        0.38       700     1000     2100     4100     4101     9001     2101   
                                         GEOM     BASIS     RHF     CPHF     CPHF    DEN_MP2    RHF  

 PROGRAMS   *        TOTAL        HF       INT       MP2        HF       INT       MP2        HF       INT       MP2        HF
 CPU TIMES  *         2.27      0.02      0.05      0.02      0.02      0.04      0.02      0.01      0.05      0.02      0.00
 REAL TIME  *         2.46 SEC
 DISK USED  *         9.41 MB      
 GA USED    *         0.00 MB       (max)       0.00 MB       (current)
 **********************************************************************************************************************************


1PROGRAM * MP2 (Closed-shell)     Authors: C. Hampel, H.-J. Werner, 1991, M. Deegan, P.J. Knowles, 1992


 Convergence thresholds:  THRVAR = 1.00D-12  THRDEN = 1.00D-08

 Number of core orbitals:           2 (   1   1 )
 Number of closed-shell orbitals:   7 (   4   3 )
 Number of external orbitals:      29 (  14  15 )

 Molecular orbitals read from record     2101.2  Type=RHF/CANONICAL (state 1.1)

 Number of N-1 electron functions:               7
 Number of N-2 electron functions:              28
 Number of singly external CSFs:               101
 Number of doubly external CSFs:             10404
 Total number of CSFs:                       10506

 Length of J-op  integral file:               0.00 MB
 Length of K-op  integral file:               0.08 MB

 Integral transformation finished. Total CPU:   0.00 sec, npass=  1  Memory used:   0.09 MW

 Memory needed for MP2:                      0.00 MW

 SCS-MP2 correlation energy:           -0.379042336178   (PS=  1.200000  PT=  0.333333)
 SCS-MP2 total energy:               -151.161841472589


  Reference energy                   -150.782799136411
  MP2 singlet pair energy              -0.239162977061
  MP2 triplet pair energy              -0.147932298810
  MP2 correlation energy               -0.387095275872

 !MP2 total energy                   -151.169894412283


 **********************************************************************************************************************************
 DATASETS  * FILE   NREC   LENGTH (MB)   RECORD NAMES
              1      20        3.50       500      610      700      900      950      970     1000      129      960     1100   
                                          VAR    BASINP    GEOM    SYMINP    ZMAT    AOBASIS   BASIS     P2S    ABASIS      S 
                                         1400     1410     1200     1210     1080     1600     1650     1300     1700     1380   
                                           T        V       H0       H01     AOSYM     SMH    MOLCAS    ERIS     OPER     JKOP   

              2       7        0.38       700     1000     2100     4100     4101     9001     2101   
                                         GEOM     BASIS     RHF     CPHF     CPHF    DEN_MP2    RHF  

 PROGRAMS   *        TOTAL       MP2        HF       INT       MP2        HF       INT       MP2        HF       INT       MP2
 CPU TIMES  *         2.28      0.00      0.02      0.05      0.02      0.02      0.04      0.02      0.01      0.05      0.02
 REAL TIME  *         2.48 SEC
 DISK USED  *         9.41 MB      
 GA USED    *         0.00 MB       (max)       0.00 MB       (current)
 **********************************************************************************************************************************
 SETTING BETA_INT_ROT(4)=      -150.00000000  DEGREE                          
 SETTING E_INT_ROT(4)   =         1.84272322  AU                              

 DO I                   =         5.00000000   
 SETTING BETA           =      -140.00000000                                  


 Recomputing integrals since geometry changed

1PROGRAM * SEWARD (Integral evaluation for generally contracted gaussian basis sets)     Author: Roland Lindh, 1990

 Geometry written to block  1 of record 700

 Orientation using atomic masses  
 Molecule type: Asymmetric top,     Order of principal axis = 2
 Symmetry elements: XY
 Rotational constants:     298.5912576     26.7697676     25.0644697 GHz  (calculated with average atomic masses)

 Point group  C2  



 ATOMIC COORDINATES

 NR  ATOM    CHARGE       X              Y              Z

   1  H1      1.00    1.807756421    1.541537097    0.583136311
   2  H2      1.00   -1.807756421   -1.541537097    0.583136311
   3  O1      8.00    1.370479503   -0.128100945   -0.036736778
   4  O2      8.00   -1.370479503    0.128100945   -0.036736778

 Bond lengths in Bohr (Angstrom)

 1-3  1.833887930  2-4  1.833887930  3-4  2.752906769
     ( 0.970451696)     ( 0.970451696)     ( 1.456775520)

 Bond angles

  1-3-4   98.78209941   2-4-3   98.78209941

 NUCLEAR CHARGE:                   18
 NUMBER OF PRIMITIVE AOS:          68
 NUMBER OF SYMMETRY AOS:           66
 NUMBER OF CONTRACTIONS:           38   (  19A   +  19B   )
 NUMBER OF CORE ORBITALS:           2   (   1A   +   1B   )
 NUMBER OF VALENCE ORBITALS:       10   (   5A   +   5B   )


 NUCLEAR REPULSION ENERGY   36.71176719


 Eigenvalues of metric

         1 0.247E-01 0.468E-01 0.139E+00 0.157E+00 0.201E+00 0.222E+00 0.564E+00 0.583E+00
         2 0.122E-01 0.494E-01 0.911E-01 0.153E+00 0.168E+00 0.187E+00 0.443E+00 0.570E+00


 Contracted 2-electron integrals neglected if value below      1.0D-11
 AO integral compression algorithm  1   Integral accuracy      1.0D-11

     1.311 MB (compressed) written to integral file ( 50.8%)

     Node minimum: 1.311 MB, node maximum: 1.311 MB


 NUMBER OF SORTED TWO-ELECTRON INTEGRALS:     144590.     BUFFER LENGTH:  32768
 NUMBER OF SEGMENTS:   1  SEGMENT LENGTH:     144590      RECORD LENGTH: 524288

 Memory used in sort:       0.70 MW

 SORT1 READ      264728. AND WROTE      123438. INTEGRALS IN      1 RECORDS. CPU TIME:     0.00 SEC, REAL TIME:     0.00 SEC
 SORT2 READ      123438. AND WROTE      144590. INTEGRALS IN      5 RECORDS. CPU TIME:     0.01 SEC, REAL TIME:     0.01 SEC

 FILE SIZES:   FILE 1:     3.2 MBYTE,  FILE 4:     4.2 MBYTE,   TOTAL:      7.5 MBYTE

 OPERATOR DM      FOR CENTER  0  COORDINATES:    0.000000    0.000000    0.000000


 **********************************************************************************************************************************
 DATASETS  * FILE   NREC   LENGTH (MB)   RECORD NAMES
              1      19        3.24       500      610      700      900      950      970     1000      129      960     1100   
                                          VAR    BASINP    GEOM    SYMINP    ZMAT    AOBASIS   BASIS     P2S    ABASIS      S 
                                         1400     1410     1200     1210     1080     1600     1650     1300     1700   
                                           T        V       H0       H01     AOSYM     SMH    MOLCAS    ERIS     OPER   

              2       7        0.38       700     1000     2100     4100     4101     9001     2101   
                                         GEOM     BASIS     RHF     CPHF     CPHF    DEN_MP2    RHF  

 PROGRAMS   *        TOTAL       INT       MP2        HF       INT       MP2        HF       INT       MP2        HF       INT
 CPU TIMES  *         2.33      0.06      0.00      0.02      0.05      0.02      0.02      0.04      0.02      0.01      0.05
 REAL TIME  *         2.54 SEC
 DISK USED  *         9.41 MB      
 GA USED    *         0.00 MB       (max)       0.00 MB       (current)
 **********************************************************************************************************************************

1PROGRAM * RHF-SCF (CLOSED SHELL)       Authors: W. Meyer, H.-J. Werner


 NUMBER OF ELECTRONS:       9+    9-
 CONVERGENCE THRESHOLDS:    3.16E-07 (Density)    1.00E-07 (Energy)
 MAX. NUMBER OF ITERATIONS:       60
 INTERPOLATION TYPE:            DIIS
 INTERPOLATION STEPS:              2 (START)      1 (STEP)
 LEVEL SHIFTS:                  0.00 (CLOSED)  0.00 (OPEN) 



 Molecular orbitals read from record     2101.2  Type=RHF/CANONICAL (state 1.1)

 Molecular orbital dump at record        2101.2

 ITERATION    DDIFF          GRAD             ENERGY        2-EL.EN.            DIPOLE MOMENTS         DIIS
    1      0.000D+00      0.000D+00      -150.78061858    187.409642    0.00000    0.00000    0.46789    0
    2      0.000D+00      0.434D-02      -150.78273478    187.375851    0.00000    0.00000    0.49455    1
    3      0.774D-02      0.109D-02      -150.78295399    187.392640    0.00000    0.00000    0.49403    2
    4      0.242D-02      0.259D-03      -150.78297478    187.376761    0.00000    0.00000    0.49117    3
    5      0.559D-03      0.921D-04      -150.78297701    187.386943    0.00000    0.00000    0.49033    4
    6      0.191D-03      0.316D-04      -150.78297729    187.384058    0.00000    0.00000    0.48990    5
    7      0.793D-04      0.804D-05      -150.78297731    187.384382    0.00000    0.00000    0.48991    6
    8      0.157D-04      0.407D-05      -150.78297732    187.384353    0.00000    0.00000    0.48992    7
    9      0.141D-04      0.127D-05      -150.78297732    187.384358    0.00000    0.00000    0.48992    7
   10      0.554D-05      0.164D-06      -150.78297732    187.384358    0.00000    0.00000    0.48992    7
   11      0.515D-06      0.248D-07      -150.78297732    187.384358    0.00000    0.00000    0.48992    7
   12      0.422D-07      0.634D-08      -150.78297732    187.384359    0.00000    0.00000    0.48992    0

 Final occupancy:   5   4

 !RHF STATE 1.1 Energy               -150.782977316315
 Nuclear energy                        36.71176719
 One-electron energy                 -281.18692381
 Two-electron energy                   93.69217930
 Virial quotient                       -1.00100428
 !RHF STATE 1.1 Dipole moment           0.00000000     0.00000000     0.48992277
 Dipole moment /Debye                   0.00000000     0.00000000     1.24517791

 Orbital energies:

         1.1          2.1          3.1          4.1          5.1          6.1          7.1
    -20.623389    -1.465088    -0.678487    -0.605052    -0.526421     0.189413     0.820049

         1.2          2.2          3.2          4.2          5.2          6.2
    -20.623105    -1.206044    -0.712973    -0.460723     0.192443     0.299701


 **********************************************************************************************************************************
 DATASETS  * FILE   NREC   LENGTH (MB)   RECORD NAMES
              1      19        3.24       500      610      700      900      950      970     1000      129      960     1100   
                                          VAR    BASINP    GEOM    SYMINP    ZMAT    AOBASIS   BASIS     P2S    ABASIS      S 
                                         1400     1410     1200     1210     1080     1600     1650     1300     1700   
                                           T        V       H0       H01     AOSYM     SMH    MOLCAS    ERIS     OPER   

              2       7        0.38       700     1000     2100     4100     4101     9001     2101   
                                         GEOM     BASIS     RHF     CPHF     CPHF    DEN_MP2    RHF  

 PROGRAMS   *        TOTAL        HF       INT       MP2        HF       INT       MP2        HF       INT       MP2        HF
 CPU TIMES  *         2.34      0.01      0.06      0.00      0.02      0.05      0.02      0.02      0.04      0.02      0.01
 REAL TIME  *         2.55 SEC
 DISK USED  *         9.41 MB      
 GA USED    *         0.00 MB       (max)       0.00 MB       (current)
 **********************************************************************************************************************************


1PROGRAM * MP2 (Closed-shell)     Authors: C. Hampel, H.-J. Werner, 1991, M. Deegan, P.J. Knowles, 1992


 Convergence thresholds:  THRVAR = 1.00D-12  THRDEN = 1.00D-08

 Number of core orbitals:           2 (   1   1 )
 Number of closed-shell orbitals:   7 (   4   3 )
 Number of external orbitals:      29 (  14  15 )

 Molecular orbitals read from record     2101.2  Type=RHF/CANONICAL (state 1.1)

 Number of N-1 electron functions:               7
 Number of N-2 electron functions:              28
 Number of singly external CSFs:               101
 Number of doubly external CSFs:             10404
 Total number of CSFs:                       10506

 Length of J-op  integral file:               0.00 MB
 Length of K-op  integral file:               0.08 MB

 Integral transformation finished. Total CPU:   0.00 sec, npass=  1  Memory used:   0.09 MW

 Memory needed for MP2:                      0.00 MW

 SCS-MP2 correlation energy:           -0.379165454991   (PS=  1.200000  PT=  0.333333)
 SCS-MP2 total energy:               -151.162142771306


  Reference energy                   -150.782977316315
  MP2 singlet pair energy              -0.239236879956
  MP2 triplet pair energy              -0.147987641320
  MP2 correlation energy               -0.387224521276

 !MP2 total energy                   -151.170201837591


 **********************************************************************************************************************************
 DATASETS  * FILE   NREC   LENGTH (MB)   RECORD NAMES
              1      20        3.50       500      610      700      900      950      970     1000      129      960     1100   
                                          VAR    BASINP    GEOM    SYMINP    ZMAT    AOBASIS   BASIS     P2S    ABASIS      S 
                                         1400     1410     1200     1210     1080     1600     1650     1300     1700     1380   
                                           T        V       H0       H01     AOSYM     SMH    MOLCAS    ERIS     OPER     JKOP   

              2       7        0.38       700     1000     2100     4100     4101     9001     2101   
                                         GEOM     BASIS     RHF     CPHF     CPHF    DEN_MP2    RHF  

[...]



 Molecular orbitals read from record     2102.2  Type=RHF/CANONICAL (state 1.1)

 Molecular orbital dump at record        2102.2

 ITERATION    DDIFF          GRAD             ENERGY        2-EL.EN.            DIPOLE MOMENTS         DIIS
    1      0.000D+00      0.000D+00      -150.77930825    187.173623    0.00000    0.00000   -0.15185    0
    2      0.000D+00      0.438D-02      -150.78145756    187.154618    0.00000    0.00000   -0.12087    1
    3      0.774D-02      0.110D-02      -150.78168140    187.166928    0.00000    0.00000   -0.12147    2
    4      0.240D-02      0.258D-03      -150.78170258    187.156200    0.00000    0.00000   -0.12406    3
    5      0.530D-03      0.870D-04      -150.78170490    187.164250    0.00000    0.00000   -0.12525    4
    6      0.183D-03      0.328D-04      -150.78170521    187.160972    0.00000    0.00000   -0.12556    5
    7      0.751D-04      0.116D-04      -150.78170526    187.161561    0.00000    0.00000   -0.12556    6
    8      0.238D-04      0.613D-05      -150.78170528    187.161492    0.00000    0.00000   -0.12554    7
    9      0.251D-04      0.143D-05      -150.78170528    187.161497    0.00000    0.00000   -0.12554    7
   10      0.659D-05      0.154D-06      -150.78170528    187.161496    0.00000    0.00000   -0.12554    7
   11      0.412D-06      0.157D-07      -150.78170528    187.161496    0.00000    0.00000   -0.12554    7
   12      0.266D-07      0.329D-08      -150.78170528    187.161496    0.00000    0.00000   -0.12554    0

 Final occupancy:   5   4

 !RHF STATE 1.1 Energy               -150.781705283683
 Nuclear energy                        36.59551984
 One-electron energy                 -280.95797297
 Two-electron energy                   93.58074784
 Virial quotient                       -1.00103684
 !RHF STATE 1.1 Dipole moment           0.00000000     0.00000000    -0.12553704
 Dipole moment /Debye                   0.00000000     0.00000000    -0.31906243

 Orbital energies:

         1.1          2.1          3.1          4.1          5.1          6.1          7.1
    -20.623631    -1.462160    -0.654225    -0.615421    -0.538417     0.189512     0.818750

         1.2          2.2          3.2          4.2          5.2          6.2
    -20.623354    -1.207485    -0.720309    -0.453236     0.193065     0.293210


 **********************************************************************************************************************************
 DATASETS  * FILE   NREC   LENGTH (MB)   RECORD NAMES
              1      19        3.23       500      610      700      900      950      970     1000      129      960     1100   
                                          VAR    BASINP    GEOM    SYMINP    ZMAT    AOBASIS   BASIS     P2S    ABASIS      S 
                                         1400     1410     1200     1210     1080     1600     1650     1300     1700   
                                           T        V       H0       H01     AOSYM     SMH    MOLCAS    ERIS     OPER   

              2      78        1.08       700     1000     2100     4100     4101     9001     2101     2102     4102     4103   
                                         GEOM     BASIS     RHF     CPHF     CPHF    DEN_MP2    RHF      RHF     CPHF     CPHF   
                                         4202     4203     4302     4303     4402     4403     4502     4503     4602     4603   
                                         CPHF     CPHF     CPHF     CPHF     CPHF     CPHF     CPHF     CPHF     CPHF     CPHF   
                                         4702     4703     4802     4803     4902     4903     5002     5003     5102     5103   
                                         CPHF     CPHF     CPHF     CPHF     CPHF     CPHF     CPHF     CPHF     CPHF     CPHF   
                                         5202     5203     5302     5303     5402     5403     5502     5503     5602     5603   
                                         CPHF     CPHF     CPHF     CPHF     CPHF     CPHF     CPHF     CPHF     CPHF     CPHF   
                                         5702     5703     5802     5803     5902     5903     6002     6003     6102     6103   
                                         CPHF     CPHF     CPHF     CPHF     CPHF     CPHF     CPHF     CPHF     CPHF     CPHF   
                                         6202     6203     6302     6303     6402     6403     6502     6503     6602     6603   
                                         CPHF     CPHF     CPHF     CPHF     CPHF     CPHF     CPHF     CPHF     CPHF     CPHF   
                                         6702     6703     6802     6803     6902     6903     7002     7003     7102     7103   
                                         CPHF     CPHF     CPHF     CPHF     CPHF     CPHF     CPHF     CPHF     CPHF     CPHF   
                                         7202     7203     7302     7303     7402     7403     7502     7503   
                                         CPHF     CPHF     CPHF     CPHF     CPHF     CPHF     CPHF     CPHF   

 PROGRAMS   *        TOTAL        HF       INT      OPTG       MP2        HF       INT      OPTG       MP2        HF       INT
 CPU TIMES  *        29.30      0.01      0.04      0.54      0.02      0.02      0.05      0.74      0.02      0.01      0.06
 REAL TIME  *        31.49 SEC
 DISK USED  *        10.10 MB      
 GA USED    *         0.00 MB       (max)       0.00 MB       (current)
 **********************************************************************************************************************************


1PROGRAM * MP2 (Closed-shell)     Authors: C. Hampel, H.-J. Werner, 1991, M. Deegan, P.J. Knowles, 1992


 Convergence thresholds:  THRVAR = 1.00D-12  THRDEN = 1.00D-08

 Number of core orbitals:           2 (   1   1 )
 Number of closed-shell orbitals:   7 (   4   3 )
 Number of external orbitals:      29 (  14  15 )

 Molecular orbitals read from record     2102.2  Type=RHF/CANONICAL (state 1.1)

 Number of N-1 electron functions:               7
 Number of N-2 electron functions:              28
 Number of singly external CSFs:               101
 Number of doubly external CSFs:             10404
 Total number of CSFs:                       10506

 Length of J-op  integral file:               0.00 MB
 Length of K-op  integral file:               0.08 MB

 Integral transformation finished. Total CPU:   0.00 sec, npass=  1  Memory used:   0.09 MW

 Memory needed for MP2:                      0.00 MW

 SCS-MP2 correlation energy:           -0.379865682406   (PS=  1.200000  PT=  0.333333)
 SCS-MP2 total energy:               -151.161570966088


  Reference energy                   -150.781705283683
  MP2 singlet pair energy              -0.239729853436
  MP2 triplet pair energy              -0.148162272239
  MP2 correlation energy               -0.387892125675

 !MP2 total energy                   -151.169597409358

 KEXT needed  1 integral passes. Memory used:   0.09 MW  CPU time:      0.01 sec


 Starting Coupled-perturbed Hartree-Fock, convergence threshold= 1.0D-06

 ITER   MIC  DIIS      VAR         VARC       CPU
   1     0     1    0.32D-01    0.95D-03     0.00
   2     6     2    0.19D-03    0.11D-03     0.00
   3     3     3    0.10D-04    0.83D-06     0.00
   4     3     4    0.53D-06    0.56D-07     0.00

 CPHF convergence reached in  4 macroiterations and   12 microiterations.   Accuracy: 5.3343D-07

 CPHF solution written to record  7603.2

 Dipole moments (unrelaxed):            0.00000000     0.00000000    -0.12420572
 Orbital relaxation contribution:      -0.00000000    -0.00000000     0.00541975
 !MP2 dipole moments:                   0.00000000     0.00000000    -0.11878598

 CPU-time for density and lagrangian:                  0.00 sec
 CPU-time for coupled-perturbed hartree-fock:          0.00 sec

 MP2 Gradient info saved on record         5200.1


 **********************************************************************************************************************************
 DATASETS  * FILE   NREC   LENGTH (MB)   RECORD NAMES
              1      21        3.61       500      610      700      900      950      970     1000      129      960     1100   
                                          VAR    BASINP    GEOM    SYMINP    ZMAT    AOBASIS   BASIS     P2S    ABASIS      S 
                                         1400     1410     1200     1210     1080     1600     1650     1300     1700     1380   
                                           T        V       H0       H01     AOSYM     SMH    MOLCAS    ERIS     OPER     JKOP   
                                         5200   
                                          MP2  

              2      80        1.10       700     1000     2100     4100     4101     9001     2101     2102     4102     4103   
                                         GEOM     BASIS     RHF     CPHF     CPHF    DEN_MP2    RHF      RHF     CPHF     CPHF   
                                         4202     4203     4302     4303     4402     4403     4502     4503     4602     4603   
                                         CPHF     CPHF     CPHF     CPHF     CPHF     CPHF     CPHF     CPHF     CPHF     CPHF   
                                         4702     4703     4802     4803     4902     4903     5002     5003     5102     5103   
                                         CPHF     CPHF     CPHF     CPHF     CPHF     CPHF     CPHF     CPHF     CPHF     CPHF   
                                         5202     5203     5302     5303     5402     5403     5502     5503     5602     5603   
                                         CPHF     CPHF     CPHF     CPHF     CPHF     CPHF     CPHF     CPHF     CPHF     CPHF   
                                         5702     5703     5802     5803     5902     5903     6002     6003     6102     6103   
                                         CPHF     CPHF     CPHF     CPHF     CPHF     CPHF     CPHF     CPHF     CPHF     CPHF   
                                         6202     6203     6302     6303     6402     6403     6502     6503     6602     6603   
                                         CPHF     CPHF     CPHF     CPHF     CPHF     CPHF     CPHF     CPHF     CPHF     CPHF   
                                         6702     6703     6802     6803     6902     6903     7002     7003     7102     7103   
                                         CPHF     CPHF     CPHF     CPHF     CPHF     CPHF     CPHF     CPHF     CPHF     CPHF   
                                         7202     7203     7302     7303     7402     7403     7502     7503     7602     7603   
                                         CPHF     CPHF     CPHF     CPHF     CPHF     CPHF     CPHF     CPHF     CPHF     CPHF   

 PROGRAMS   *        TOTAL       MP2        HF       INT      OPTG       MP2        HF       INT      OPTG       MP2        HF
 CPU TIMES  *        29.33      0.02      0.01      0.04      0.54      0.02      0.02      0.05      0.74      0.02      0.01
 REAL TIME  *        31.52 SEC
 DISK USED  *        10.10 MB      
 GA USED    *         0.00 MB       (max)       0.00 MB       (current)
 **********************************************************************************************************************************


 PROGRAM * OPT (Geometry optimization)     Authors: F. Eckert and H.-J. Werner


 BFGS update of hessian

 Geometry optimization using default procedure for command MP2

 Inactive variables:    BETA

 Active variables:      ROH ROO ALPHA

 Geometry written to block  1 of record 700

 Making model hessian for Z-matrix coordinates

 Quadratic Steepest Descent - Minimum Search

 Optimization point 1

 Variable                      Last           Current        Next           Gradient       Hessian

 E(MP2) / Hartree            0.00000000  -151.16959741     0.00000000
 ROH / ANG                   0.00000000     0.96962379     0.96960846     0.00021572     4.93133114
 ROO / ANG                   0.00000000     1.46596714     1.46627213    -0.00041030     1.98675420
 ALPHA / DEGREE              0.00000000    97.38694722    97.25904616     0.00001704     0.00013670
 Convergence:                0.00000000  (line search)     0.00230568     0.00100661  (total)

 Optimization point 2

 Variable                      Last           Current        Next           Gradient       Hessian

 E(MP2) / Hartree         -151.16959741  -151.16959853     0.00000000
 ROH / ANG                   0.96962379     0.96960846     0.96958228     0.00008568     4.91861035
 ROO / ANG                   1.46596714     1.46627213     1.46663067    -0.00068080     1.94455445
 ALPHA / DEGREE             97.38694722    97.25904616    97.25709454    -0.00000207     0.00016541
 Convergence:                0.00000000  (line search)     0.00068020     0.00038205  (total)

 Optimization point 3

 Variable                      Last           Current        Next           Gradient       Hessian

 E(MP2) / Hartree         -151.16959853  -151.16959871     0.00000000
 ROH / ANG                   0.96960846     0.96958228     0.96959176    -0.00004654     5.01817936
 ROO / ANG                   1.46627213     1.46663067     1.46693759    -0.00030712     1.06746814
 ALPHA / DEGREE             97.25904616    97.25709454    97.25269377    -0.00000072     0.00016122
 Convergence:                0.00000000  (line search)     0.00058535     0.00016949  (total)

 END OF GEOMETRY OPTIMIZATION.    TOTAL CPU:         0.6 SEC

 ITER.   ENERGY(OLD)    ENERGY(NEW)      DE          GRADMAX     GRADNORM    GRADRMS     STEPMAX     STEPLEN     STEPRMS
   1  -151.16959741  -151.16959853    -0.00000112  0.00097626  0.00100661  0.00033554  0.00223229  0.00230568  0.00076856
   2  -151.16959853  -151.16959871    -0.00000018  0.00036026  0.00038205  0.00012735  0.00067754  0.00068020  0.00022673
   3  -151.16959871  -151.16959876    -0.00000005  0.00016252  0.00016949  0.00005650  0.00058001  0.00058535  0.00019512

 Geometry written to block  1 of record 700


 **********************************************************************************************************************************
 DATASETS  * FILE   NREC   LENGTH (MB)   RECORD NAMES
              1      21        3.61       500      610      700      900      950      970     1000      129      960     1100   
                                          VAR    BASINP    GEOM    SYMINP    ZMAT    AOBASIS   BASIS     P2S    ABASIS      S 
                                         1400     1410     1200     1210     1080     1600     1650     1300     1700     1380   
                                           T        V       H0       H01     AOSYM     SMH    MOLCAS    ERIS     OPER     JKOP   
                                         5200   
                                          MP2  

              2      80        1.10       700     1000     2100     4100     4101     9001     2101     2102     4102     4103   
                                         GEOM     BASIS     RHF     CPHF     CPHF    DEN_MP2    RHF      RHF     CPHF     CPHF   
                                         4202     4203     4302     4303     4402     4403     4502     4503     4602     4603   
                                         CPHF     CPHF     CPHF     CPHF     CPHF     CPHF     CPHF     CPHF     CPHF     CPHF   
                                         4702     4703     4802     4803     4902     4903     5002     5003     5102     5103   
                                         CPHF     CPHF     CPHF     CPHF     CPHF     CPHF     CPHF     CPHF     CPHF     CPHF   
                                         5202     5203     5302     5303     5402     5403     5502     5503     5602     5603   
                                         CPHF     CPHF     CPHF     CPHF     CPHF     CPHF     CPHF     CPHF     CPHF     CPHF   
                                         5702     5703     5802     5803     5902     5903     6002     6003     6102     6103   
                                         CPHF     CPHF     CPHF     CPHF     CPHF     CPHF     CPHF     CPHF     CPHF     CPHF   
                                         6202     6203     6302     6303     6402     6403     6502     6503     6602     6603   
                                         CPHF     CPHF     CPHF     CPHF     CPHF     CPHF     CPHF     CPHF     CPHF     CPHF   
                                         6702     6703     6802     6803     6902     6903     7002     7003     7102     7103   
                                         CPHF     CPHF     CPHF     CPHF     CPHF     CPHF     CPHF     CPHF     CPHF     CPHF   
                                         7202     7203     7302     7303     7402     7403     7502     7503     7602     7603   
                                         CPHF     CPHF     CPHF     CPHF     CPHF     CPHF     CPHF     CPHF     CPHF     CPHF   

 PROGRAMS   *        TOTAL      OPTG       MP2        HF       INT      OPTG       MP2        HF       INT      OPTG       MP2
 CPU TIMES  *        29.88      0.55      0.02      0.01      0.04      0.54      0.02      0.02      0.05      0.74      0.02
 REAL TIME  *        32.10 SEC
 DISK USED  *        10.12 MB      
 GA USED    *         0.00 MB       (max)       0.00 MB       (current)
 **********************************************************************************************************************************
 SETTING E_INT_ROT_OPTG(36)              =       2.61896653  AU                              
                                                                                                                                                                                                                                                                

   BETA_INT_ROT     E_INT_ROT  E_INT_ROT_OPTG
         -180.0    3.25459401      2.76775924
         -170.0    3.07618314      2.61897321
         -160.0    2.57364917      2.19837933
         -150.0    1.84272322      1.58253364
         -140.0    1.03557807      0.89583062
         -130.0    0.34906777      0.30462942
         -120.0    0.00728494      0.00641926
         -110.0    0.23818180      0.21211845
         -100.0    1.24537094      1.12031622
          -90.0    3.17840997      2.88493494
          -80.0    6.10667343      5.58111581
          -70.0   10.00115981      9.17630759
          -60.0   14.72406550     13.51266597
          -50.0   20.02126225     18.30542262
          -40.0   25.51522790     23.16061685
          -30.0   30.70913806     27.61688330
          -20.0   35.02586536     31.20924482
          -10.0   37.90017969     33.54171853
            0.0   38.91059905     34.35006584
           10.0   37.90018805     33.54171264
           20.0   35.02588046     31.20923793
           30.0   30.70915704     27.61688822
           40.0   25.51524753     23.16062707
           50.0   20.02127675     18.30544136
           60.0   14.72407489     13.51268320
           70.0   10.00116856      9.17629083
           80.0    6.10668135      5.58114729
           90.0    3.17841727      2.88493579
          100.0    1.24537775      1.12032311
          110.0    0.23818827      0.21212722
          120.0    0.00729113      0.00642772
          130.0    0.34907359      0.30463523
          140.0    1.03558330      0.89583434
          150.0    1.84272756      1.58253354
          160.0    2.57365232      2.19838148
          170.0    3.07618481      2.61896653
                                                  

       OPTG(MP2)        MP2             HF-SCF         OPTG(MP2)        MP2             HF-SCF         OPTG(MP2)        MP2     
   -151.16959876   -151.16959741   -150.78170528   -151.16975895   -151.16975537   -150.78196459   -151.16999351   -151.16998697
 **********************************************************************************************************************************
 Variable memory released
