
 Primary working directories    : /mnt/SSD/student17
 Secondary working directories  : /mnt/SSD/student17
 Wavefunction directory         : /home/student17/wfu/
 Main file repository           : /mnt/SSD/student17/

 ARCHNAME  : Linux/x86_64
 FC        : /usr/bin/gfortran
 FCVERSION : 4.7.2
 BLASLIB   : -L/opt/intel/mkl/lib/intel64 -lmkl_intel_ilp64 -lmkl_sequential -lmkl_core
 id        : plat

 Nodes     nprocs
 debserv      1
 ga_uses_ma=false, calling ma_init with nominal heap.
 GA-space will be limited to   8.0 MW (determined by -G option)

 Using customized tuning parameters: mindgm=12; mindgv=24; mindgc=8; mindgr=1; noblas=0; mincuda=1000; minvec=7
 default implementation of scratch files=df  

 ***,Ar-Ar
 
 basis = aug-cc-pv(5+d)z                                                         ! basis set
 
 geometry = {ar; ar, ar, r}
 r_min = 3.30, angstrem
 r_max = 7.50, angstrem
 n = 43
 
 do i=1, n
 r = r_min + (r_max - r_min)/(n-1) * (i-1)
 dist(i) = r
 
                                                                                 ! hartree fock
 hf
 ccsd(t)
 e_vdw = energy
 
                                                                                 ! atomic energies?
                                                                                 ! dummy ar
                                                                                 ! hf
                                                                                 ! ccsd(t)
                                                                                 ! e_atomic = energy
 
 e(i) = e_vdw
 enddo
 
 table dist, e
 save ar2.tab, new

 Variables initialized (661), CPU time= 0.00 sec
 Commands  initialized (460), CPU time= 0.00 sec, 486 directives.
 Default parameters read. Elapsed time= 0.02 sec

 Checking input...
 Passed
1


                                         ***  PROGRAM SYSTEM MOLPRO  ***
                         Copyright, University College Cardiff Consultants Limited, 2008

                                    Version 2010.1 linked 30 –ù–æ—è 2013 12:52


 **********************************************************************************************************************************
 LABEL *   Ar-Ar                                                                         
 Linux-3.2.0-4-amd64/debserv(x86_64) 64 bit mpp version                                  DATE: 02-Jun-17          TIME: 23:47:49  
 **********************************************************************************************************************************

 SHA1:             fd122acbd35ef3619fab5330ac0556b6c1fa4be2
 **********************************************************************************************************************************

 Variable memory set to    8000000 words,  buffer space   230000 words

 SETTING BASIS          =    AUG-CC-PV(5+D)Z
 SETTING R_MIN          =         3.30000000  ANGSTREM                        
 SETTING R_MAX          =         7.50000000  ANGSTREM                        
 SETTING N              =        43.00000000                                  

 DO I                   =         1.00000000   
 SETTING R              =         3.30000000  ANGSTREM                        
 SETTING DIST(1)        =         3.30000000  ANGSTREM                        


 Recomputing integrals since basis changed


 Using spherical harmonics

 Library entry AR     S aug-cc-pv(5+d)z      selected for orbital group  1
 Library entry AR     P aug-cc-pv(5+d)z      selected for orbital group  1
 Library entry AR     D aug-cc-pv(5+d)z      selected for orbital group  1
 Library entry AR     F aug-cc-pv(5+d)z      selected for orbital group  1
 Library entry AR     G aug-cc-pv(5+d)z      selected for orbital group  1
 Library entry AR     H aug-cc-pv(5+d)z      selected for orbital group  1

1PROGRAM * SEWARD (Integral evaluation for generally contracted gaussian basis sets)     Author: Roland Lindh, 1990

 Geometry written to block  1 of record 700

 Orientation using atomic masses  
 Molecule type: Linear
 Symmetry elements: X,Y,Z
 Rotational constants:       2.3234015      2.3234015      0.0000000 GHz  (calculated with average atomic masses)

 Point group  D2h 



 ATOMIC COORDINATES

 NR  ATOM    CHARGE       X              Y              Z

   1  AR     18.00    0.000000000    0.000000000   -3.118048117
   2  AR     18.00    0.000000000    0.000000000    3.118048117

 NUCLEAR CHARGE:                   36
 NUMBER OF PRIMITIVE AOS:         446
 NUMBER OF SYMMETRY AOS:          334
 NUMBER OF CONTRACTIONS:          272   (  50Ag  +  33B3u +  33B2u +  20B1g +  50B1u +  33B2g +  33B3g +  20Au  )
 NUMBER OF CORE ORBITALS:          10   (   3Ag  +   1B3u +   1B2u +   0B1g +   3B1u +   1B2g +   1B3g +   0Au  )
 NUMBER OF VALENCE ORBITALS:        8   (   2Ag  +   1B3u +   1B2u +   0B1g +   2B1u +   1B2g +   1B3g +   0Au  )


 NUCLEAR REPULSION ENERGY   51.95558052

 EXTRA SYMMETRY OF AOS IN SYMMETRY 1:   1 1 1 1 1 1 1 1 1 1   1 1 1 1 1 1 2 1 2 1   2 1 2 1 2 1 2 1 2 1   2 1 2 1 2 1 3 2 1 3
                                        2 1 3 2 2 3 1 2 3 1
 EXTRA SYMMETRY OF AOS IN SYMMETRY 2:   1 1 1 1 1 1 1 1 1 1   1 1 1 1 2 1 2 1 2 1   2 1 2 1 2 1 2 1 2 3   1 2 3
 EXTRA SYMMETRY OF AOS IN SYMMETRY 3:   1 1 1 1 1 1 1 1 1 1   1 1 1 1 2 1 2 1 2 1   2 1 2 1 2 1 2 1 2 3   1 2 3
 EXTRA SYMMETRY OF AOS IN SYMMETRY 4:   1 1 1 1 1 1 1 1 1 1   1 2 1 2 1 2 2 1 2 1
 EXTRA SYMMETRY OF AOS IN SYMMETRY 5:   1 1 1 1 1 1 1 1 1 1   1 1 1 1 1 1 2 1 2 1   2 1 2 1 2 1 2 1 2 1   2 1 2 1 2 1 3 2 1 3
                                        2 1 3 2 2 3 1 2 3 1
 EXTRA SYMMETRY OF AOS IN SYMMETRY 6:   1 1 1 1 1 1 1 1 1 1   1 1 1 1 2 1 2 1 2 1   2 1 2 1 2 1 2 1 2 3   1 2 3
 EXTRA SYMMETRY OF AOS IN SYMMETRY 7:   1 1 1 1 1 1 1 1 1 1   1 1 1 1 2 1 2 1 2 1   2 1 2 1 2 1 2 1 2 3   1 2 3
 EXTRA SYMMETRY OF AOS IN SYMMETRY 8:   1 1 1 1 1 1 1 1 1 1   1 2 1 2 1 2 2 1 2 1

 Eigenvalues of metric

         1 0.525E-05 0.303E-04 0.366E-02 0.127E-01 0.190E-01 0.201E-01 0.237E-01 0.345E-01
         2 0.525E-05 0.197E-01 0.220E-01 0.387E-01 0.414E-01 0.112E+00 0.135E+00 0.155E+00
         3 0.525E-05 0.197E-01 0.220E-01 0.387E-01 0.414E-01 0.112E+00 0.135E+00 0.155E+00
         4 0.201E-01 0.424E-01 0.144E+00 0.152E+00 0.161E+00 0.204E+00 0.204E+00 0.281E+00
         5 0.525E-05 0.293E-04 0.131E-02 0.255E-02 0.134E-01 0.181E-01 0.197E-01 0.256E-01
         6 0.525E-05 0.167E-01 0.185E-01 0.260E-01 0.402E-01 0.798E-01 0.870E-01 0.121E+00
         7 0.525E-05 0.167E-01 0.185E-01 0.260E-01 0.402E-01 0.798E-01 0.870E-01 0.121E+00
         8 0.197E-01 0.360E-01 0.128E+00 0.138E+00 0.151E+00 0.203E+00 0.204E+00 0.238E+00


 Contracted 2-electron integrals neglected if value below      1.0D-12
 No memory left in getmem. Have:              5601631   Need:               6166641

 GETMEM ERROR IN GETMEM  k2  Allo

  Memory allocation map
  ---------------------

  FldNam   VarTyp            ID   Length     iPos
  - - - - - - - - - - - - - - - - - - - - - - - -
  IGAT  IGAS  INFOF     REAL 17481650580400  1999974*********
  SPHE  HERR  HERW  TMAX  DDX   IMAP?©9  INTE 17481652581716     4851*********
  IX0 ?©9  REAL 17481652586568      162*********
  IMAP?©9  INTE 17481652586731     6602*********
  IX0 ?©9  REAL 17481652593334      196*********
  IMAP?©9  INTE 17481652593531     5635*********
  IX0 ?©9  REAL 17481652599167      173*********
  IMAP?©9  INTE 17481652599341     6337*********
  IX0 ?©9  REAL 17481652605679      211*********
  IMAP?©9  INTE 17481652605891     5027*********
  IX0 ?©9  REAL 17481652610919      180*********
  IMAP?©9  INTE 17481652611100     5501*********
  IX0 ?©9  REAL 17481652616602      210*********
  IMAP?©9  INTE 17481652616813     4041*********
  IX0 ?©9  REAL 17481652620855      176*********
  IMAP?©9  INTE 17481652621032     4627*********
  IX0 ?©9  REAL 17481652625660      197*********
  IMAP?©9  INTE 17481652625858     3317*********
  IX0 ?©9  REAL 17481652629176      162*********
  CFFR?©9  REAL 17481652629339     2268*********
  CFFR?©9  REAL 17481652631608     5488*********
  CFFR?©9  REAL 17481652637097     7266*********
  CFFR?©9  REAL 17481652644364    11816*********
  CFFR?©9  REAL 17481652656181    12600*********
  CFFR?©9  REAL 17481652668782    17640*********
  CFFR?©9  REAL 17481652686423    17248*********
  CFFR?©9  REAL 17481652703672    22064*********
  CFFR?©9  REAL 17481652725737    20412*********
  HERRñl'|  REAL 17481652746150       66*********
  HERWñl'|  REAL 17481652746217       66*********
  CENTPƒÉ  REAL 17481652746284        6*********
  MASSPƒÉ  REAL 17481652746291        2*********
  CHARPƒÉ  REAL 17481652746294        2*********
  MPMC      REAL 17481652746297        6*********
  ISD       INTE 17481652746304      190*********
  ISOS‡$|d  INTE 17481652746495      544*********
  AUXB‡$|d  REAL 17481652747040      512*********
  MEMR‡$|d  REAL 17481652747553     8820*********
  MEMI‡$|d  INTE 17481652756374      882*********
  HRRM  K2  	
 STACK TRACE:

 SEWARD                            0.00      0.00

 GLOBAL ERROR fehler on processor   0                                         
