
 Primary working directories    : /mnt/SSD/student17
 Secondary working directories  : /mnt/SSD/student17
 Wavefunction directory         : /home/student17/wfu/
 Main file repository           : /mnt/SSD/student17/

 ARCHNAME  : Linux/x86_64
 FC        : /usr/bin/gfortran
 FCVERSION : 4.7.2
 BLASLIB   : -L/opt/intel/mkl/lib/intel64 -lmkl_intel_ilp64 -lmkl_sequential -lmkl_core
 id        : plat

 Nodes     nprocs
 debserv      1
 ga_uses_ma=false, calling ma_init with nominal heap.
 GA-space will be limited to   8.0 MW (determined by -G option)

 Using customized tuning parameters: mindgm=12; mindgv=24; mindgc=8; mindgr=1; noblas=0; mincuda=1000; minvec=7
 default implementation of scratch files=df  

 ***,Ar-Ar
 
 basis = aug-cc-pv5z                                                             ! basis set
 
 geometry = {ar; ar, ar, r}
 r_min = 3.30, angstrem
 r_max = 7.50, angstrem
 n = 43
 
 do i=1, n
 r = r_min + (r_max - r_min)/(n-1) * (i-1)
 dist(i) = r
 
                                                                                 ! hartree fock
 hf
 ccsd(t)
 e_vdw = energy
 
                                                                                 ! atomic energies?
                                                                                 ! dummy ar
                                                                                 ! hf
                                                                                 ! ccsd(t)
                                                                                 ! e_atomic = energy
 
 e(i) = e_vdw
 enddo
 
 table dist, e
 save ar2.tab, new

 Variables initialized (661), CPU time= 0.00 sec
 Commands  initialized (460), CPU time= 0.00 sec, 486 directives.
 Default parameters read. Elapsed time= 0.02 sec

 Checking input...
 Passed
1


                                         ***  PROGRAM SYSTEM MOLPRO  ***
                         Copyright, University College Cardiff Consultants Limited, 2008

                                    Version 2010.1 linked 30 –ù–æ—è 2013 12:52


 **********************************************************************************************************************************
 LABEL *   Ar-Ar                                                                         
 Linux-3.2.0-4-amd64/debserv(x86_64) 64 bit mpp version                                  DATE: 02-Jun-17          TIME: 23:44:53  
 **********************************************************************************************************************************

 SHA1:             fd122acbd35ef3619fab5330ac0556b6c1fa4be2
 **********************************************************************************************************************************

 Variable memory set to    8000000 words,  buffer space   230000 words

 SETTING BASIS          =    AUG-CC-PV5Z
 SETTING R_MIN          =         3.30000000  ANGSTREM                        
 SETTING R_MAX          =         7.50000000  ANGSTREM                        
 SETTING N              =        43.00000000                                  

 DO I                   =         1.00000000   
 SETTING R              =         3.30000000  ANGSTREM                        
 SETTING DIST(1)        =         3.30000000  ANGSTREM                        


 Recomputing integrals since basis changed


 Using spherical harmonics

 Library entry AR     S aug-cc-pV5Z          selected for orbital group  1
 Library entry AR     P aug-cc-pV5Z          selected for orbital group  1
 Library entry AR     D aug-cc-pV5Z          selected for orbital group  1
 Library entry AR     F aug-cc-pV5Z          selected for orbital group  1
 Library entry AR     G aug-cc-pV5Z          selected for orbital group  1
 Library entry AR     H aug-cc-pV5Z          selected for orbital group  1

1PROGRAM * SEWARD (Integral evaluation for generally contracted gaussian basis sets)     Author: Roland Lindh, 1990

 Geometry written to block  1 of record 700

 Orientation using atomic masses  
 Molecule type: Linear
 Symmetry elements: X,Y,Z
 Rotational constants:       2.3234015      2.3234015      0.0000000 GHz  (calculated with average atomic masses)

 Point group  D2h 



 ATOMIC COORDINATES

 NR  ATOM    CHARGE       X              Y              Z

   1  AR     18.00    0.000000000    0.000000000   -3.118048117
   2  AR     18.00    0.000000000    0.000000000    3.118048117

 NUCLEAR CHARGE:                   36
 NUMBER OF PRIMITIVE AOS:         434
 NUMBER OF SYMMETRY AOS:          324
 NUMBER OF CONTRACTIONS:          262   (  48Ag  +  32B3u +  32B2u +  19B1g +  48B1u +  32B2g +  32B3g +  19Au  )
 NUMBER OF CORE ORBITALS:          10   (   3Ag  +   1B3u +   1B2u +   0B1g +   3B1u +   1B2g +   1B3g +   0Au  )
 NUMBER OF VALENCE ORBITALS:        8   (   2Ag  +   1B3u +   1B2u +   0B1g +   2B1u +   1B2g +   1B3g +   0Au  )


 NUCLEAR REPULSION ENERGY   51.95558052

 EXTRA SYMMETRY OF AOS IN SYMMETRY 1:   1 1 1 1 1 1 1 1 1 1   1 1 1 1 1 1 2 1 2 1   2 1 2 1 2 1 2 1 2 1   2 1 2 1 3 2 1 3 2 1
                                        3 2 2 3 1 2 3 1
 EXTRA SYMMETRY OF AOS IN SYMMETRY 2:   1 1 1 1 1 1 1 1 1 1   1 1 1 2 1 2 1 2 1 2   1 2 1 2 1 2 1 2 3 1   2 3
 EXTRA SYMMETRY OF AOS IN SYMMETRY 3:   1 1 1 1 1 1 1 1 1 1   1 1 1 2 1 2 1 2 1 2   1 2 1 2 1 2 1 2 3 1   2 3
 EXTRA SYMMETRY OF AOS IN SYMMETRY 4:   1 1 1 1 1 1 1 1 1 1   2 1 2 1 2 2 1 2 1
 EXTRA SYMMETRY OF AOS IN SYMMETRY 5:   1 1 1 1 1 1 1 1 1 1   1 1 1 1 1 1 2 1 2 1   2 1 2 1 2 1 2 1 2 1   2 1 2 1 3 2 1 3 2 1
                                        3 2 2 3 1 2 3 1
 EXTRA SYMMETRY OF AOS IN SYMMETRY 6:   1 1 1 1 1 1 1 1 1 1   1 1 1 2 1 2 1 2 1 2   1 2 1 2 1 2 1 2 3 1   2 3
 EXTRA SYMMETRY OF AOS IN SYMMETRY 7:   1 1 1 1 1 1 1 1 1 1   1 1 1 2 1 2 1 2 1 2   1 2 1 2 1 2 1 2 3 1   2 3
 EXTRA SYMMETRY OF AOS IN SYMMETRY 8:   1 1 1 1 1 1 1 1 1 1   2 1 2 1 2 2 1 2 1

 Eigenvalues of metric

         1 0.525E-05 0.303E-04 0.377E-02 0.136E-01 0.229E-01 0.334E-01 0.424E-01 0.511E-01
         2 0.525E-05 0.220E-01 0.385E-01 0.414E-01 0.576E-01 0.113E+00 0.155E+00 0.160E+00
         3 0.525E-05 0.220E-01 0.385E-01 0.414E-01 0.576E-01 0.113E+00 0.155E+00 0.160E+00
         4 0.424E-01 0.591E-01 0.152E+00 0.161E+00 0.204E+00 0.204E+00 0.224E+00 0.283E+00
         5 0.525E-05 0.287E-04 0.116E-02 0.309E-02 0.147E-01 0.245E-01 0.360E-01 0.407E-01
         6 0.525E-05 0.161E-01 0.255E-01 0.402E-01 0.509E-01 0.829E-01 0.100E+00 0.148E+00
         7 0.525E-05 0.161E-01 0.255E-01 0.402E-01 0.509E-01 0.829E-01 0.100E+00 0.148E+00
         8 0.360E-01 0.567E-01 0.133E+00 0.151E+00 0.202E+00 0.204E+00 0.206E+00 0.244E+00


 Contracted 2-electron integrals neglected if value below      1.0D-12
 No memory left in getmem. Have:              5601651   Need:               6161889

 GETMEM ERROR IN GETMEM  k2  Allo

  Memory allocation map
  ---------------------

  FldNam   VarTyp            ID   Length     iPos
  - - - - - - - - - - - - - - - - - - - - - - - -
  IGAT  IGAS  INFOF     REAL 17490963828144  1999974*********
  SPHE  HERR  HERW  TMAX  DDX   IMAP?π˚ë  INTE 17490965829460     4851*********
  IX0 ?π˚ë  REAL 17490965834312      162*********
  IMAP?π˚ë  INTE 17490965834475     6602*********
  IX0 ?π˚ë  REAL 17490965841078      196*********
  IMAP?π˚ë  INTE 17490965841275     5635*********
  IX0 ?π˚ë  REAL 17490965846911      173*********
  IMAP?π˚ë  INTE 17490965847085     6337*********
  IX0 ?π˚ë  REAL 17490965853423      211*********
  IMAP?π˚ë  INTE 17490965853635     5027*********
  IX0 ?π˚ë  REAL 17490965858663      180*********
  IMAP?π˚ë  INTE 17490965858844     5501*********
  IX0 ?π˚ë  REAL 17490965864346      210*********
  IMAP?π˚ë  INTE 17490965864557     4041*********
  IX0 ?π˚ë  REAL 17490965868599      176*********
  IMAP?π˚ë  INTE 17490965868776     4627*********
  IX0 ?π˚ë  REAL 17490965873404      197*********
  IMAP?π˚ë  INTE 17490965873602     3317*********
  IX0 ?π˚ë  REAL 17490965876920      162*********
  CFFR?π˚ë  REAL 17490965877083     2268*********
  CFFR?π˚ë  REAL 17490965879352     5488*********
  CFFR?π˚ë  REAL 17490965884841     7266*********
  CFFR?π˚ë  REAL 17490965892108    11816*********
  CFFR?π˚ë  REAL 17490965903925    12600*********
  CFFR?π˚ë  REAL 17490965916526    17640*********
  CFFR?π˚ë  REAL 17490965934167    17248*********
  CFFR?π˚ë  REAL 17490965951416    22064*********
  CFFR?π˚ë  REAL 17490965973481    20412*********
  HERRñl'|  REAL 17490965993894       66*********
  HERWñl'|  REAL 17490965993961       66*********
  CENTPƒÉ  REAL 17490965994028        6*********
  MASSPƒÉ  REAL 17490965994035        2*********
  CHARPƒÉ  REAL 17490965994038        2*********
  MPMC      REAL 17490965994041        6*********
  ISD       INTE 17490965994048      190*********
  ISOS–m[ï  INTE 17490965994239      524*********
  AUXB–m[ï  REAL 17490965994764      512*********
  MEMR–m[ï  REAL 17490965995277     8820*********
  MEMI–m[ï  INTE 17490966004098      882*********
  HRRM  K2  	
 STACK TRACE:

 SEWARD                            0.01      0.01

 GLOBAL ERROR fehler on processor   0                                         
