<?xml version="1.0"?>
<molpro xmlns="http://www.molpro.net/schema/molpro-output"
  xmlns:xsd="http://www.w3.org/1999/XMLSchema"
  xmlns:cml="http://www.xml-cml.org/schema"
  xmlns:stm="http://www.xml-cml.org/schema"
  xmlns:xhtml="http://www.w3.org/1999/xhtml">
 <!--

 Primary working directories    : /mnt/SSD/student17
 Secondary working directories  : /mnt/SSD/student17
 Wavefunction directory         : /home/student17/wfu/
 Main file repository           : /mnt/SSD/student17/

 ARCHNAME  : Linux/x86_64
 FC        : /usr/bin/gfortran
 FCVERSION : 4.7.2
 BLASLIB   : -L/opt/intel/mkl/lib/intel64 -lmkl_intel_ilp64 -lmkl_sequential -lmkl_core
 id        : plat

 Nodes     nprocs
 debserv      1
 ga_uses_ma=false, calling ma_init with nominal heap.
 GA-space will be limited to   8.0 MW (determined by -G option)

 Using customized tuning parameters: mindgm=12; mindgv=24; mindgc=8; mindgr=1; noblas=0; mincuda=1000; minvec=7
 default implementation of scratch files=df  

 --><job>
  <!--
 ***,Ar-Ar
 
 basis = aug-cc-pvqz                                                             ! basis set
 
 geometry = {ar; ar, ar, r}
 r_min = 3.30, angstrem
 r_max = 7.50, angstrem
 n = 42
 
 do i=1, n
 r = r_min + (r_max - r_min)/(n-1) * (i-1)
 dist(i) = r
 
                                                                                 ! hartree fock
 hf
 ccsd(t)
 e_vdw = energy
 
                                                                                 ! atomic energies?
                                                                                 ! dummy ar
                                                                                 ! hf
                                                                                 ! ccsd(t)
                                                                                 ! e_atomic = energy
 
 e(i) = e_vdw
 enddo
 
 table dist, e
 save ar2.tab, new

 Variables initialized (661), CPU time= 0.00 sec
 Commands  initialized (460), CPU time= 0.00 sec, 486 directives.
 Default parameters read. Elapsed time= 0.02 sec

 Checking input...
 Passed
1


                                         ***  PROGRAM SYSTEM MOLPRO  ***
                         Copyright, University College Cardiff Consultants Limited, 2008

                                    Version 2010.1 linked 30 Ноя 2013 12:52


 **********************************************************************************************************************************
 LABEL *   Ar-Ar                                                                         
 Linux-3.2.0-4-amd64/debserv(x86_64) 64 bit mpp version                                  DATE: 02-Jun-17          TIME: 23:37:02  
 **********************************************************************************************************************************

 SHA1:             fd122acbd35ef3619fab5330ac0556b6c1fa4be2
 **********************************************************************************************************************************
  -->
  <!--

 Variable memory set to    8000000 words,  buffer space   230000 words

 SETTING BASIS          =    AUG-CC-PVQZ
 SETTING R_MIN          =         3.30000000  ANGSTREM                        
 SETTING R_MAX          =         7.50000000  ANGSTREM                        
 SETTING N              =        42.00000000                                  

 DO I                   =         1.00000000   
 SETTING R              =         3.30000000  ANGSTREM                        
 SETTING DIST(1)        =         3.30000000  ANGSTREM                        
  --><jobstep command="HF-SCF" commandset="SCFPRO">
   <!--


 Recomputing integrals since basis changed


 Using spherical harmonics

 Library entry AR     S aug-cc-pVQZ          selected for orbital group  1
 Library entry AR     P aug-cc-pVQZ          selected for orbital group  1
 Library entry AR     D aug-cc-pVQZ          selected for orbital group  1
 Library entry AR     F aug-cc-pVQZ          selected for orbital group  1
 Library entry AR     G aug-cc-pVQZ          selected for orbital group  1

1PROGRAM * SEWARD (Integral evaluation for generally contracted gaussian basis sets)     Author: Roland Lindh, 1990

 Geometry written to block  1 of record 700

 Orientation using atomic masses  
 Molecule type: Linear
 Symmetry elements: X,Y,Z
 Rotational constants:       2.3234015      2.3234015      0.0000000 GHz  (calculated with average atomic masses)

 Point group  D2h 


   --><cml:symmetry pointGroup="D2h"/><!--
   --><cml:atomArray>
    <cml:atom id="a1" elementType="Ar" x3="0.0" y3="0.0" z3="-1.65"/>
    <cml:atom id="a2" elementType="Ar" x3="0.0" y3="0.0" z3="1.65"/>
   </cml:atomArray><!--
   --><cml:bondArray>
   </cml:bondArray><!--

 ATOMIC COORDINATES

 NR  ATOM    CHARGE       X              Y              Z

   1  AR     18.00    0.000000000    0.000000000   -3.118048117
   2  AR     18.00    0.000000000    0.000000000    3.118048117

 NUCLEAR CHARGE:                   36
 NUMBER OF PRIMITIVE AOS:         274
 NUMBER OF SYMMETRY AOS:          224
 NUMBER OF CONTRACTIONS:          168   (  33Ag  +  20B3u +  20B2u +  11B1g +  33B1u +  20B2g +  20B3g +  11Au  )
 NUMBER OF CORE ORBITALS:          10   (   3Ag  +   1B3u +   1B2u +   0B1g +   3B1u +   1B2g +   1B3g +   0Au  )
 NUMBER OF VALENCE ORBITALS:        8   (   2Ag  +   1B3u +   1B2u +   0B1g +   2B1u +   1B2g +   1B3g +   0Au  )


 NUCLEAR REPULSION ENERGY   51.95558052

 EXTRA SYMMETRY OF AOS IN SYMMETRY 1:   1 1 1 1 1 1 1 1 1 1   1 1 1 1 2 1 2 1 2 1   2 1 2 1 2 1 2 1 3 2   1 3 2
 EXTRA SYMMETRY OF AOS IN SYMMETRY 2:   1 1 1 1 1 1 1 1 1 1   1 2 1 2 1 2 1 2 1 2
 EXTRA SYMMETRY OF AOS IN SYMMETRY 3:   1 1 1 1 1 1 1 1 1 1   1 2 1 2 1 2 1 2 1 2
 EXTRA SYMMETRY OF AOS IN SYMMETRY 4:   1 1 1 1 1 1 1 1 2 1   2
 EXTRA SYMMETRY OF AOS IN SYMMETRY 5:   1 1 1 1 1 1 1 1 1 1   1 1 1 1 2 1 2 1 2 1   2 1 2 1 2 1 2 1 3 2   1 3 2
 EXTRA SYMMETRY OF AOS IN SYMMETRY 6:   1 1 1 1 1 1 1 1 1 1   1 2 1 2 1 2 1 2 1 2
 EXTRA SYMMETRY OF AOS IN SYMMETRY 7:   1 1 1 1 1 1 1 1 1 1   1 2 1 2 1 2 1 2 1 2
 EXTRA SYMMETRY OF AOS IN SYMMETRY 8:   1 1 1 1 1 1 1 1 2 1   2

 Eigenvalues of metric

         1 0.201E-03 0.666E-03 0.107E-01 0.483E-01 0.566E-01 0.842E-01 0.944E-01 0.103E+00
         2 0.684E-03 0.548E-01 0.816E-01 0.987E-01 0.107E+00 0.289E+00 0.340E+00 0.355E+00
         3 0.684E-03 0.548E-01 0.816E-01 0.987E-01 0.107E+00 0.289E+00 0.340E+00 0.355E+00
         4 0.842E-01 0.103E+00 0.339E+00 0.344E+00 0.400E+00 0.711E+00 0.119E+01 0.166E+01
         5 0.194E-03 0.636E-03 0.430E-02 0.952E-02 0.366E-01 0.725E-01 0.787E-01 0.840E-01
         6 0.678E-03 0.455E-01 0.566E-01 0.825E-01 0.975E-01 0.193E+00 0.273E+00 0.327E+00
         7 0.678E-03 0.455E-01 0.566E-01 0.825E-01 0.975E-01 0.193E+00 0.273E+00 0.327E+00
         8 0.787E-01 0.926E-01 0.330E+00 0.339E+00 0.360E+00 0.686E+00 0.108E+01 0.165E+01


 Contracted 2-electron integrals neglected if value below      1.0D-11
 AO integral compression algorithm  1   Integral accuracy      1.0D-11

     79.954 MB (compressed) written to integral file ( 41.8%)

     Node minimum: 79.954 MB, node maximum: 79.954 MB


 NUMBER OF SORTED TWO-ELECTRON INTEGRALS:   13027854.     BUFFER LENGTH:  32768
 NUMBER OF SEGMENTS:   2  SEGMENT LENGTH:    6670587      RECORD LENGTH: 524288

 Memory used in sort:       7.23 MW

 SORT1 READ    23909504. AND WROTE     9953512. INTEGRALS IN     29 RECORDS. CPU TIME:     0.41 SEC, REAL TIME:     0.56 SEC
 SORT2 READ     9953512. AND WROTE    13027854. INTEGRALS IN    305 RECORDS. CPU TIME:     0.33 SEC, REAL TIME:     0.41 SEC

 FILE SIZES:   FILE 1:    47.9 MBYTE,  FILE 4:   121.7 MBYTE,   TOTAL:    169.5 MBYTE

 OPERATOR DM      FOR CENTER  0  COORDINATES:    0.000000    0.000000    0.000000


 **********************************************************************************************************************************
 DATASETS  * FILE   NREC   LENGTH (MB)   RECORD NAMES
              1      19       47.92       500      610      700      900      950      970     1000      129      960     1100   
                                          VAR    BASINP    GEOM    SYMINP    ZMAT    AOBASIS   BASIS     P2S    ABASIS      S 
                                         1400     1410     1200     1210     1080     1600     1650     1300     1700   
                                           T        V       H0       H01     AOSYM     SMH    MOLCAS    ERIS     OPER   

 PROGRAMS   *        TOTAL       INT
 CPU TIMES  *         4.17      4.13
 REAL TIME  *         4.49 SEC
 DISK USED  *       250.02 MB      
 GA USED    *         0.00 MB       (max)       0.00 MB       (current)
 **********************************************************************************************************************************

1PROGRAM * RHF-SCF (CLOSED SHELL)       Authors: W. Meyer, H.-J. Werner


 NUMBER OF ELECTRONS:      18+   18-
 CONVERGENCE THRESHOLDS:    1.00E-05 (Density)    1.00E-07 (Energy)
 MAX. NUMBER OF ITERATIONS:       60
 INTERPOLATION TYPE:            DIIS
 INTERPOLATION STEPS:              2 (START)      1 (STEP)
 LEVEL SHIFTS:                  0.00 (CLOSED)  0.00 (OPEN) 



 Orbital guess generated from atomic densities. Full valence occupancy:    5   2   2   0   5   2   2   0


 Molecular orbital dump at record        2100.2

 Initial alpha occupancy:   5   2   2   0   5   2   2   0
 Initial beta  occupancy:   5   2   2   0   5   2   2   0
 Wave function symmetry:    1

 ITERATION    DDIFF          GRAD             ENERGY        2-EL.EN.            DIPOLE MOMENTS         DIIS
    1      0.000D+00      0.000D+00     -1053.63136635    909.674048    0.00000    0.00000    0.00000    0
    2      0.000D+00      0.117D-03     -1053.63137941    909.642309    0.00000    0.00000    0.00000    1
    3      0.206D-03      0.302D-04     -1053.63138030    909.649392    0.00000    0.00000    0.00000    2
    4      0.664D-04      0.845D-05     -1053.63138036    909.646427    0.00000    0.00000    0.00000    3
    5      0.165D-04      0.184D-05     -1053.63138036    909.646290    0.00000    0.00000    0.00000    4
    6      0.480D-05      0.322D-06     -1053.63138036    909.646401    0.00000    0.00000    0.00000    0

 Final occupancy:   5   2   2   0   5   2   2   0

 !RHF STATE 1.1 Energy              -1053.631380363137
   --><property name="Energy" method="RHF" principal="true" stateSymmetry="1" stateNumber="1"
     value="-1053.63138036314"/><!--
 Nuclear energy                        51.95558052
 One-electron energy                -1560.41016160
 Two-electron energy                  454.82320071
 Virial quotient                       -0.99998151
 !RHF STATE 1.1 Dipole moment           0.00000000     0.00000000     0.00000000
 Dipole moment /Debye                   0.00000000     0.00000000     0.00000000
   --><property name="Dipole moment" method="RHF" principal="true" stateSymmetry="1"
     stateNumber="1" value="0.0 0.0 0.0"/><!--

 Orbital energies:

         1.1          2.1          3.1          4.1          5.1          6.1          7.1
   -118.609145   -12.321129    -9.570410    -1.279649    -0.608343     0.108644     0.138983

         1.2          2.2          3.2          4.2
     -9.570407    -0.593501     0.102130     0.290443

         1.3          2.3          3.3          4.3
     -9.570407    -0.593501     0.102130     0.290443

         1.4          2.4
      0.293450     0.769626

         1.5          2.5          3.5          4.5          5.5          6.5          7.5
   -118.609145   -12.321131    -9.570410    -1.274642    -0.573666     0.087021     0.232260

         1.6          2.6          3.6          4.6
     -9.570408    -0.587788     0.132609     0.417593

         1.7          2.7          3.7          4.7
     -9.570408    -0.587788     0.132609     0.417593

         1.8          2.8
      0.339226     0.790781


 **********************************************************************************************************************************
 DATASETS  * FILE   NREC   LENGTH (MB)   RECORD NAMES
              1      19       47.92       500      610      700      900      950      970     1000      129      960     1100   
                                          VAR    BASINP    GEOM    SYMINP    ZMAT    AOBASIS   BASIS     P2S    ABASIS      S 
                                         1400     1410     1200     1210     1080     1600     1650     1300     1700   
                                           T        V       H0       H01     AOSYM     SMH    MOLCAS    ERIS     OPER   

              2       3        0.38       700     1000     2100   
                                         GEOM     BASIS     RHF  

 PROGRAMS   *        TOTAL        HF       INT
 CPU TIMES  *         4.30      0.13      4.13
 REAL TIME  *         4.64 SEC
 DISK USED  *       250.02 MB      
 GA USED    *         0.00 MB       (max)       0.00 MB       (current)
 **********************************************************************************************************************************
   -->
   <time start="23:37:02" end="23:37:07" cpu="4.3" system="0.32" real="4.64"/>
   <storage units="megabyte" memory="65.84" sf="0.0" df="170.07" eaf="79.95" ga="0.0"/>
  </jobstep><!--
  --><jobstep command="CCSD(T)" commandset="CCSD">
   <!--


1PROGRAM * CCSD (Closed-shell coupled cluster)     Authors: C. Hampel, H.-J. Werner, 1991, M. Deegan, P.J. Knowles, 1992


 Convergence thresholds:  THRVAR = 1.00D-08  THRDEN = 1.00D-06

 CCSD(T)     terms to be evaluated (factor= 1.000)


 Number of core orbitals:          10 (   3   1   1   0   3   1   1   0 )
 Number of closed-shell orbitals:   8 (   2   1   1   0   2   1   1   0 )
 Number of external orbitals:     150 (  28  18  18  11  28  18  18  11 )

 Molecular orbitals read from record     2100.2  Type=RHF/CANONICAL (state 1.1)

 Number of N-1 electron functions:               8
 Number of N-2 electron functions:              36
 Number of singly external CSFs:               184
 Number of doubly external CSFs:             92912
 Total number of CSFs:                       93097

 Length of J-op  integral file:               0.00 MB
 Length of K-op  integral file:               0.31 MB
 Length of 3-ext integral record:             0.00 MB

 Memory could be reduced to 5.15 Mwords without degradation in triples

 Integral transformation finished. Total CPU:   0.11 sec, npass=  1  Memory used:   1.71 MW

 Reference energy:                  -1053.63138036

 MP2 singlet pair energy:              -0.30059408
 MP2 triplet pair energy:              -0.16579433
 MP2 correlation energy:               -0.46638841
 MP2 total energy:                  -1054.09776877

 SCS-MP2 correlation energy:           -0.46387381   (PS=  1.200000  PT=  0.333333)
 SCS-MP2 total energy:              -1054.09525418

 ITER.      SQ.NORM     CORR.ENERGY   TOTAL ENERGY   ENERGY CHANGE        DEN1      VAR(S)    VAR(P)  DIIS     TIME
   1      1.14653738    -0.49946003 -1054.13084040    -0.03307162    -0.02503717  0.11D-03  0.14D-02  1  1     0.28
   2      1.15267247    -0.50065263 -1054.13203300    -0.00119260    -0.00850794  0.31D-05  0.46D-04  2  2     0.45
   3      1.15335513    -0.50059733 -1054.13197769     0.00005531    -0.00062066  0.20D-06  0.24D-05  3  3     0.62
   4      1.15348292    -0.50060981 -1054.13199017    -0.00001248    -0.00004641  0.22D-07  0.76D-07  4  4     0.80
   5      1.15349969    -0.50060995 -1054.13199032    -0.00000014    -0.00000791  0.15D-08  0.33D-08  5  5     0.98
   6      1.15350145    -0.50060936 -1054.13198972     0.00000060    -0.00000100  0.21D-09  0.20D-09  6  6     1.15

 Norm of t1 vector:      0.01262977      S-energy:    -0.00000002      T1 diagnostic:  0.00223265
                                                                       D1 diagnostic:  0.00370201


 Total CPU time for triples:      2.20 sec


 RESULTS
 =======

  Reference energy                  -1053.631380363138
  CCSD singlet pair energy             -0.339886694798
  CCSD triplet pair energy             -0.160722645068
  CCSD correlation energy              -0.500609355258

  Triples (T) contribution             -0.017806216875
  Total correlation energy             -0.518415572132

  CCSD total energy                 -1054.131989718395
  CCSD[T] energy                    -1054.149827806765
  CCSD-T energy                     -1054.149805836011
 !CCSD(T) total energy              -1054.149795935270

 Timing summary (sec):

 STEP                 CPU(USER)    SYS     CPU(TOT)    WALL
 Transformation          0.11      0.04      0.15      0.15
 CCSD iterations         1.04      0.08      1.12      1.12
 Triples                 2.20      0.08      2.28      2.28

 Program statistics:

 Available memory in ccsd:                 7999644
 Min. memory needed in ccsd:                301383
 Max. memory used in ccsd:                  379719
 Max. memory used in cckext:                367247 ( 6 integral passes)

   --><property name="energy" method="Reference" stateSymmetry="1" stateNumber="1"
     value="-1053.63138036314"/>
      <property name="singlet pair energy" method="CCSD" stateSymmetry="1" stateNumber="1"
     value="-0.339886694797717"/>
      <property name="triplet pair energy" method="CCSD" stateSymmetry="1" stateNumber="1"
     value="-0.160722645068322"/>
      <property name="correlation energy" method="CCSD" stateSymmetry="1" stateNumber="1"
     value="-0.500609355257531"/>
      <property name="contribution" method="Triples (T)" stateSymmetry="1" stateNumber="1"
     value="-0.178062168747276E-01"/>
      <property name="correlation energy" method="Total" stateSymmetry="1" stateNumber="1"
     value="-0.518415572132259"/>
      <property name="total energy" method="CCSD" stateSymmetry="1" stateNumber="1"
     value="-1054.1319897184"/>
      <property name="energy" method="CCSD[T]" stateSymmetry="1" stateNumber="1"
     value="-1054.14982780676"/>
      <property name="energy" method="CCSD-T" stateSymmetry="1" stateNumber="1"
     value="-1054.14980583601"/>
      <property name="total energy" method="CCSD(T)" principal="true" stateSymmetry="1"
     stateNumber="1" value="-1054.14979593527"/><!--


 **********************************************************************************************************************************
 DATASETS  * FILE   NREC   LENGTH (MB)   RECORD NAMES
              1      20       63.86       500      610      700      900      950      970     1000      129      960     1100   
                                          VAR    BASINP    GEOM    SYMINP    ZMAT    AOBASIS   BASIS     P2S    ABASIS      S 
                                         1400     1410     1200     1210     1080     1600     1650     1300     1700     1380   
                                           T        V       H0       H01     AOSYM     SMH    MOLCAS    ERIS     OPER     JKOP   

              2       3        0.38       700     1000     2100   
                                         GEOM     BASIS     RHF  

 PROGRAMS   *        TOTAL   CCSD(T)        HF       INT
 CPU TIMES  *         7.66      3.36      0.13      4.13
 REAL TIME  *         8.22 SEC
 DISK USED  *       250.02 MB      
 GA USED    *         0.00 MB       (max)       0.00 MB       (current)
 **********************************************************************************************************************************
   -->
   <time start="23:37:07" end="23:37:10" cpu="3.36" system="0.2" real="3.58"/>
   <storage units="megabyte" memory="65.84" sf="0.0" df="170.07" eaf="79.95" ga="0.0"/>
  </jobstep><!--
 SETTING E_VDW          =     -1054.14979594  AU                              
 SETTING E(1)           =     -1054.14979594  AU                              

 DO I                   =         2.00000000   
 SETTING R              =         3.40243902  ANGSTREM                        
 SETTING DIST(2)        =         3.40243902  ANGSTREM                        
  --><jobstep command="HF-SCF" commandset="SCFPRO">
   <!--


 Recomputing integrals since geometry changed

1PROGRAM * SEWARD (Integral evaluation for generally contracted gaussian basis sets)     Author: Roland Lindh, 1990

 Geometry written to block  1 of record 700

 Orientation using atomic masses  
 Molecule type: Linear
 Symmetry elements: X,Y,Z
 Rotational constants:       2.1856038      2.1856038      0.0000000 GHz  (calculated with average atomic masses)

 Point group  D2h 


   --><cml:symmetry pointGroup="D2h"/><!--
   --><cml:atomArray>
    <cml:atom id="a1" elementType="Ar" x3="0.0" y3="0.0" z3="-1.70121951219512"/>
    <cml:atom id="a2" elementType="Ar" x3="0.0" y3="0.0" z3="1.70121951219512"/>
   </cml:atomArray><!--
   --><cml:bondArray>
   </cml:bondArray><!--

 ATOMIC COORDINATES

 NR  ATOM    CHARGE       X              Y              Z

   1  AR     18.00    0.000000000    0.000000000   -3.214838967
   2  AR     18.00    0.000000000    0.000000000    3.214838967

 NUCLEAR CHARGE:                   36
 NUMBER OF PRIMITIVE AOS:         274
 NUMBER OF SYMMETRY AOS:          224
 NUMBER OF CONTRACTIONS:          168   (  33Ag  +  20B3u +  20B2u +  11B1g +  33B1u +  20B2g +  20B3g +  11Au  )
 NUMBER OF CORE ORBITALS:          10   (   3Ag  +   1B3u +   1B2u +   0B1g +   3B1u +   1B2g +   1B3g +   0Au  )
 NUMBER OF VALENCE ORBITALS:        8   (   2Ag  +   1B3u +   1B2u +   0B1g +   2B1u +   1B2g +   1B3g +   0Au  )


 NUCLEAR REPULSION ENERGY   50.39132648

 EXTRA SYMMETRY OF AOS IN SYMMETRY 1:   1 1 1 1 1 1 1 1 1 1   1 1 1 1 2 1 2 1 2 1   2 1 2 1 2 1 2 1 3 2   1 3 2
 EXTRA SYMMETRY OF AOS IN SYMMETRY 2:   1 1 1 1 1 1 1 1 1 1   1 2 1 2 1 2 1 2 1 2
 EXTRA SYMMETRY OF AOS IN SYMMETRY 3:   1 1 1 1 1 1 1 1 1 1   1 2 1 2 1 2 1 2 1 2
 EXTRA SYMMETRY OF AOS IN SYMMETRY 4:   1 1 1 1 1 1 1 1 2 1   2
 EXTRA SYMMETRY OF AOS IN SYMMETRY 5:   1 1 1 1 1 1 1 1 1 1   1 1 1 1 2 1 2 1 2 1   2 1 2 1 2 1 2 1 3 2   1 3 2
 EXTRA SYMMETRY OF AOS IN SYMMETRY 6:   1 1 1 1 1 1 1 1 1 1   1 2 1 2 1 2 1 2 1 2
 EXTRA SYMMETRY OF AOS IN SYMMETRY 7:   1 1 1 1 1 1 1 1 1 1   1 2 1 2 1 2 1 2 1 2
 EXTRA SYMMETRY OF AOS IN SYMMETRY 8:   1 1 1 1 1 1 1 1 2 1   2

 Eigenvalues of metric

         1 0.201E-03 0.670E-03 0.108E-01 0.482E-01 0.610E-01 0.841E-01 0.942E-01 0.102E+00
         2 0.685E-03 0.547E-01 0.821E-01 0.986E-01 0.107E+00 0.288E+00 0.340E+00 0.351E+00
         3 0.685E-03 0.547E-01 0.821E-01 0.986E-01 0.107E+00 0.288E+00 0.340E+00 0.351E+00
         4 0.841E-01 0.102E+00 0.339E+00 0.343E+00 0.399E+00 0.708E+00 0.118E+01 0.166E+01
         5 0.195E-03 0.637E-03 0.486E-02 0.113E-01 0.372E-01 0.762E-01 0.791E-01 0.846E-01
         6 0.679E-03 0.467E-01 0.586E-01 0.851E-01 0.976E-01 0.198E+00 0.282E+00 0.332E+00
         7 0.679E-03 0.467E-01 0.586E-01 0.851E-01 0.976E-01 0.198E+00 0.282E+00 0.332E+00
         8 0.791E-01 0.938E-01 0.333E+00 0.339E+00 0.362E+00 0.689E+00 0.109E+01 0.166E+01


 Contracted 2-electron integrals neglected if value below      1.0D-11
 AO integral compression algorithm  1   Integral accuracy      1.0D-11

     79.692 MB (compressed) written to integral file ( 41.7%)

     Node minimum: 79.692 MB, node maximum: 79.692 MB


 NUMBER OF SORTED TWO-ELECTRON INTEGRALS:   13027854.     BUFFER LENGTH:  32768
 NUMBER OF SEGMENTS:   2  SEGMENT LENGTH:    6670587      RECORD LENGTH: 524288

 Memory used in sort:       7.23 MW

 SORT1 READ    23909504. AND WROTE     9953170. INTEGRALS IN     29 RECORDS. CPU TIME:     0.45 SEC, REAL TIME:     0.55 SEC
 SORT2 READ     9953170. AND WROTE    13027854. INTEGRALS IN    304 RECORDS. CPU TIME:     0.36 SEC, REAL TIME:     0.42 SEC

 FILE SIZES:   FILE 1:    47.8 MBYTE,  FILE 4:   121.7 MBYTE,   TOTAL:    169.5 MBYTE

 OPERATOR DM      FOR CENTER  0  COORDINATES:    0.000000    0.000000    0.000000


 **********************************************************************************************************************************
 DATASETS  * FILE   NREC   LENGTH (MB)   RECORD NAMES
              1      19       47.83       500      610      700      900      950      970     1000      129      960     1100   
                                          VAR    BASINP    GEOM    SYMINP    ZMAT    AOBASIS   BASIS     P2S    ABASIS      S 
                                         1400     1410     1200     1210     1080     1600     1650     1300     1700   
                                           T        V       H0       H01     AOSYM     SMH    MOLCAS    ERIS     OPER   

              2       3        0.38       700     1000     2100   
                                         GEOM     BASIS     RHF  

 PROGRAMS   *        TOTAL       INT   CCSD(T)        HF       INT
 CPU TIMES  *        11.83      4.17      3.36      0.13      4.13
 REAL TIME  *        12.62 SEC
 DISK USED  *       250.05 MB      
 GA USED    *         0.00 MB       (max)       0.00 MB       (current)
 **********************************************************************************************************************************

1PROGRAM * RHF-SCF (CLOSED SHELL)       Authors: W. Meyer, H.-J. Werner


 NUMBER OF ELECTRONS:      18+   18-
 CONVERGENCE THRESHOLDS:    1.00E-05 (Density)    1.00E-07 (Energy)
 MAX. NUMBER OF ITERATIONS:       60
 INTERPOLATION TYPE:            DIIS
 INTERPOLATION STEPS:              2 (START)      1 (STEP)
 LEVEL SHIFTS:                  0.00 (CLOSED)  0.00 (OPEN) 



 Molecular orbitals read from record     2100.2  Type=RHF/CANONICAL (state 1.1)

 Molecular orbital dump at record        2100.2

 ITERATION    DDIFF          GRAD             ENERGY        2-EL.EN.            DIPOLE MOMENTS         DIIS
    1      0.000D+00      0.000D+00     -1053.63205907    906.489832    0.00000    0.00000    0.00000    0
    2      0.000D+00      0.112D-03     -1053.63206823    906.510098    0.00000    0.00000    0.00000    1
    3      0.209D-03      0.167D-04     -1053.63206847    906.503497    0.00000    0.00000    0.00000    2
    4      0.386D-04      0.380D-05     -1053.63206848    906.505454    0.00000    0.00000    0.00000    3
    5      0.804D-05      0.721D-06     -1053.63206848    906.505343    0.00000    0.00000    0.00000    0

 Final occupancy:   5   2   2   0   5   2   2   0

 !RHF STATE 1.1 Energy              -1053.632068478581
   --><property name="Energy" method="RHF" principal="true" stateSymmetry="1" stateNumber="1"
     value="-1053.63206847858"/><!--
 Nuclear energy                        50.39132648
 One-electron energy                -1557.27606638
 Two-electron energy                  453.25267142
 Virial quotient                       -0.99998877
 !RHF STATE 1.1 Dipole moment           0.00000000     0.00000000     0.00000000
 Dipole moment /Debye                   0.00000000     0.00000000     0.00000000
   --><property name="Dipole moment" method="RHF" principal="true" stateSymmetry="1"
     stateNumber="1" value="0.0 0.0 0.0"/><!--

 Orbital energies:

         1.1          2.1          3.1          4.1          5.1          6.1          7.1
   -118.609484   -12.321414    -9.570697    -1.279111    -0.605465     0.108697     0.137704

         1.2          2.2          3.2          4.2
     -9.570697    -0.593029     0.101747     0.288879

         1.3          2.3          3.3          4.3
     -9.570697    -0.593029     0.101747     0.288879

         1.4          2.4
      0.294872     0.769197

         1.5          2.5          3.5          4.5          5.5          6.5          7.5
   -118.609484   -12.321416    -9.570697    -1.275271    -0.576596     0.087904     0.229441

         1.6          2.6          3.6          4.6
     -9.570697    -0.588440     0.132224     0.412517

         1.7          2.7          3.7          4.7
     -9.570697    -0.588440     0.132224     0.412517

         1.8          2.8
      0.336970     0.790312


 **********************************************************************************************************************************
 DATASETS  * FILE   NREC   LENGTH (MB)   RECORD NAMES
              1      19       47.83       500      610      700      900      950      970     1000      129      960     1100   
                                          VAR    BASINP    GEOM    SYMINP    ZMAT    AOBASIS   BASIS     P2S    ABASIS      S 
                                         1400     1410     1200     1210     1080     1600     1650     1300     1700   
                                           T        V       H0       H01     AOSYM     SMH    MOLCAS    ERIS     OPER   

              2       3        0.38       700     1000     2100   
                                         GEOM     BASIS     RHF  

 PROGRAMS   *        TOTAL        HF       INT   CCSD(T)        HF       INT
 CPU TIMES  *        11.92      0.09      4.17      3.36      0.13      4.13
 REAL TIME  *        12.73 SEC
 DISK USED  *       250.05 MB      
 GA USED    *         0.00 MB       (max)       0.00 MB       (current)
 **********************************************************************************************************************************
   -->
   <time start="23:37:10" end="23:37:15" cpu="4.26" system="0.24" real="4.51"/>
   <storage units="megabyte" memory="65.84" sf="0.0" df="170.09" eaf="79.95" ga="0.0"/>
  </jobstep><!--
  --><jobstep command="CCSD(T)" commandset="CCSD">
   <!--


1PROGRAM * CCSD (Closed-shell coupled cluster)     Authors: C. Hampel, H.-J. Werner, 1991, M. Deegan, P.J. Knowles, 1992


 Convergence thresholds:  THRVAR = 1.00D-08  THRDEN = 1.00D-06

 CCSD(T)     terms to be evaluated (factor= 1.000)


 Number of core orbitals:          10 (   3   1   1   0   3   1   1   0 )
 Number of closed-shell orbitals:   8 (   2   1   1   0   2   1   1   0 )
 Number of external orbitals:     150 (  28  18  18  11  28  18  18  11 )

 Molecular orbitals read from record     2100.2  Type=RHF/CANONICAL (state 1.1)

 Number of N-1 electron functions:               8
 Number of N-2 electron functions:              36
 Number of singly external CSFs:               184
 Number of doubly external CSFs:             92912
 Total number of CSFs:                       93097

 Length of J-op  integral file:               0.00 MB
 Length of K-op  integral file:               0.31 MB
 Length of 3-ext integral record:             0.00 MB

 Memory could be reduced to 5.15 Mwords without degradation in triples

 Integral transformation finished. Total CPU:   0.11 sec, npass=  1  Memory used:   1.71 MW

 Reference energy:                  -1053.63206848

 MP2 singlet pair energy:              -0.30048744
 MP2 triplet pair energy:              -0.16554419
 MP2 correlation energy:               -0.46603163
 MP2 total energy:                  -1054.09810011

 SCS-MP2 correlation energy:           -0.46359020   (PS=  1.200000  PT=  0.333333)
 SCS-MP2 total energy:              -1054.09565868

 ITER.      SQ.NORM     CORR.ENERGY   TOTAL ENERGY   ENERGY CHANGE        DEN1      VAR(S)    VAR(P)  DIIS     TIME
   1      1.14648746    -0.49917488 -1054.13124336    -0.03314325    -0.02510553  0.11D-03  0.14D-02  1  1     0.29
   2      1.15262497    -0.50036744 -1054.13243592    -0.00119256    -0.00851383  0.30D-05  0.46D-04  2  2     0.45
   3      1.15330590    -0.50031270 -1054.13238118     0.00005474    -0.00061907  0.19D-06  0.24D-05  3  3     0.61
   4      1.15343292    -0.50032533 -1054.13239381    -0.00001263    -0.00004598  0.22D-07  0.75D-07  4  4     0.79
   5      1.15344962    -0.50032542 -1054.13239390    -0.00000009    -0.00000799  0.15D-08  0.32D-08  5  5     0.96
   6      1.15345130    -0.50032483 -1054.13239331     0.00000058    -0.00000095  0.21D-09  0.19D-09  6  6     1.14

 Norm of t1 vector:      0.01257261      S-energy:    -0.00000005      T1 diagnostic:  0.00222254
                                                                       D1 diagnostic:  0.00364394

 Total CPU time for triples:      2.23 sec


 RESULTS
 =======

  Reference energy                  -1053.632068478581
  CCSD singlet pair energy             -0.339815439922
  CCSD triplet pair energy             -0.160509345357
  CCSD correlation energy              -0.500324832227

  Triples (T) contribution             -0.017766011497
  Total correlation energy             -0.518090843725

  CCSD total energy                 -1054.132393310809
  CCSD[T] energy                    -1054.150191346791
  CCSD-T energy                     -1054.150169343040
 !CCSD(T) total energy              -1054.150159322306

 Timing summary (sec):

 STEP                 CPU(USER)    SYS     CPU(TOT)    WALL
 Transformation          0.11      0.04      0.15      0.15
 CCSD iterations         1.03      0.09      1.12      1.12
 Triples                 2.23      0.04      2.27      2.28

 Program statistics:

 Available memory in ccsd:                 7999644
 Min. memory needed in ccsd:                301383
 Max. memory used in ccsd:                  379719
 Max. memory used in cckext:                367247 ( 6 integral passes)

   --><property name="energy" method="Reference" stateSymmetry="1" stateNumber="1"
     value="-1053.63206847858"/>
      <property name="singlet pair energy" method="CCSD" stateSymmetry="1" stateNumber="1"
     value="-0.339815439921766"/>
      <property name="triplet pair energy" method="CCSD" stateSymmetry="1" stateNumber="1"
     value="-0.160509345356763"/>
      <property name="correlation energy" method="CCSD" stateSymmetry="1" stateNumber="1"
     value="-0.500324832227345"/>
      <property name="contribution" method="Triples (T)" stateSymmetry="1" stateNumber="1"
     value="-0.177660114973669E-01"/>
      <property name="correlation energy" method="Total" stateSymmetry="1" stateNumber="1"
     value="-0.518090843724711"/>
      <property name="total energy" method="CCSD" stateSymmetry="1" stateNumber="1"
     value="-1054.13239331081"/>
      <property name="energy" method="CCSD[T]" stateSymmetry="1" stateNumber="1"
     value="-1054.15019134679"/>
      <property name="energy" method="CCSD-T" stateSymmetry="1" stateNumber="1"
     value="-1054.15016934304"/>
      <property name="total energy" method="CCSD(T)" principal="true" stateSymmetry="1"
     stateNumber="1" value="-1054.15015932231"/><!--


 **********************************************************************************************************************************
 DATASETS  * FILE   NREC   LENGTH (MB)   RECORD NAMES
              1      20       63.77       500      610      700      900      950      970     1000      129      960     1100   
                                          VAR    BASINP    GEOM    SYMINP    ZMAT    AOBASIS   BASIS     P2S    ABASIS      S 
                                         1400     1410     1200     1210     1080     1600     1650     1300     1700     1380   
                                           T        V       H0       H01     AOSYM     SMH    MOLCAS    ERIS     OPER     JKOP   

              2       3        0.38       700     1000     2100   
                                         GEOM     BASIS     RHF  

 PROGRAMS   *        TOTAL   CCSD(T)        HF       INT   CCSD(T)        HF       INT
 CPU TIMES  *        15.31      3.39      0.09      4.17      3.36      0.13      4.13
 REAL TIME  *        16.30 SEC
 DISK USED  *       250.05 MB      
 GA USED    *         0.00 MB       (max)       0.00 MB       (current)
 **********************************************************************************************************************************
   -->
   <time start="23:37:15" end="23:37:18" cpu="3.39" system="0.17" real="3.57"/>
   <storage units="megabyte" memory="65.84" sf="0.0" df="170.09" eaf="79.95" ga="0.0"/>
  </jobstep><!--
 SETTING E_VDW          =     -1054.15015932  AU                              
 SETTING E(2)           =     -1054.15015932  AU                              

 DO I                   =         3.00000000   
 SETTING R              =         3.50487805  ANGSTREM                        
 SETTING DIST(3)        =         3.50487805  ANGSTREM                        
  --><jobstep command="HF-SCF" commandset="SCFPRO">
   <!--


 Recomputing integrals since geometry changed

1PROGRAM * SEWARD (Integral evaluation for generally contracted gaussian basis sets)     Author: Roland Lindh, 1990

 Geometry written to block  1 of record 700

 Orientation using atomic masses  
 Molecule type: Linear
 Symmetry elements: X,Y,Z
 Rotational constants:       2.0597111      2.0597111      0.0000000 GHz  (calculated with average atomic masses)

 Point group  D2h 


   --><cml:symmetry pointGroup="D2h"/><!--
   --><cml:atomArray>
    <cml:atom id="a1" elementType="Ar" x3="0.0" y3="0.0" z3="-1.75243902439024"/>
    <cml:atom id="a2" elementType="Ar" x3="0.0" y3="0.0" z3="1.75243902439024"/>
   </cml:atomArray><!--
   --><cml:bondArray>
   </cml:bondArray><!--

 ATOMIC COORDINATES

 NR  ATOM    CHARGE       X              Y              Z

   1  AR     18.00    0.000000000    0.000000000   -3.311629818
   2  AR     18.00    0.000000000    0.000000000    3.311629818

 NUCLEAR CHARGE:                   36
 NUMBER OF PRIMITIVE AOS:         274
 NUMBER OF SYMMETRY AOS:          224
 NUMBER OF CONTRACTIONS:          168   (  33Ag  +  20B3u +  20B2u +  11B1g +  33B1u +  20B2g +  20B3g +  11Au  )
 NUMBER OF CORE ORBITALS:          10   (   3Ag  +   1B3u +   1B2u +   0B1g +   3B1u +   1B2g +   1B3g +   0Au  )
 NUMBER OF VALENCE ORBITALS:        8   (   2Ag  +   1B3u +   1B2u +   0B1g +   2B1u +   1B2g +   1B3g +   0Au  )


 NUCLEAR REPULSION ENERGY   48.91851110

 EXTRA SYMMETRY OF AOS IN SYMMETRY 1:   1 1 1 1 1 1 1 1 1 1   1 1 1 1 2 1 2 1 2 1   2 1 2 1 2 1 2 1 3 2   1 3 2
 EXTRA SYMMETRY OF AOS IN SYMMETRY 2:   1 1 1 1 1 1 1 1 1 1   1 2 1 2 1 2 1 2 1 2
 EXTRA SYMMETRY OF AOS IN SYMMETRY 3:   1 1 1 1 1 1 1 1 1 1   1 2 1 2 1 2 1 2 1 2
 EXTRA SYMMETRY OF AOS IN SYMMETRY 4:   1 1 1 1 1 1 1 1 2 1   2
 EXTRA SYMMETRY OF AOS IN SYMMETRY 5:   1 1 1 1 1 1 1 1 1 1   1 1 1 1 2 1 2 1 2 1   2 1 2 1 2 1 2 1 3 2   1 3 2
 EXTRA SYMMETRY OF AOS IN SYMMETRY 6:   1 1 1 1 1 1 1 1 1 1   1 2 1 2 1 2 1 2 1 2
 EXTRA SYMMETRY OF AOS IN SYMMETRY 7:   1 1 1 1 1 1 1 1 1 1   1 2 1 2 1 2 1 2 1 2
 EXTRA SYMMETRY OF AOS IN SYMMETRY 8:   1 1 1 1 1 1 1 1 2 1   2

 Eigenvalues of metric

         1 0.201E-03 0.673E-03 0.109E-01 0.482E-01 0.648E-01 0.841E-01 0.940E-01 0.102E+00
         2 0.685E-03 0.547E-01 0.825E-01 0.985E-01 0.106E+00 0.288E+00 0.339E+00 0.347E+00
         3 0.685E-03 0.547E-01 0.825E-01 0.985E-01 0.106E+00 0.288E+00 0.339E+00 0.347E+00
         4 0.841E-01 0.102E+00 0.339E+00 0.341E+00 0.397E+00 0.706E+00 0.117E+01 0.166E+01
         5 0.196E-03 0.640E-03 0.536E-02 0.134E-01 0.378E-01 0.794E-01 0.795E-01 0.850E-01
         6 0.679E-03 0.475E-01 0.608E-01 0.875E-01 0.978E-01 0.203E+00 0.291E+00 0.336E+00
         7 0.679E-03 0.475E-01 0.608E-01 0.875E-01 0.978E-01 0.203E+00 0.291E+00 0.336E+00
         8 0.795E-01 0.948E-01 0.335E+00 0.339E+00 0.364E+00 0.692E+00 0.110E+01 0.166E+01


 Contracted 2-electron integrals neglected if value below      1.0D-11
 AO integral compression algorithm  1   Integral accuracy      1.0D-11

     79.430 MB (compressed) written to integral file ( 41.6%)

     Node minimum: 79.430 MB, node maximum: 79.430 MB


 NUMBER OF SORTED TWO-ELECTRON INTEGRALS:   13027854.     BUFFER LENGTH:  32768
 NUMBER OF SEGMENTS:   2  SEGMENT LENGTH:    6670587      RECORD LENGTH: 524288

 Memory used in sort:       7.23 MW

 SORT1 READ    23909504. AND WROTE     9952843. INTEGRALS IN     29 RECORDS. CPU TIME:     0.46 SEC, REAL TIME:     0.56 SEC
 SORT2 READ     9952843. AND WROTE    13027854. INTEGRALS IN    303 RECORDS. CPU TIME:     0.34 SEC, REAL TIME:     0.39 SEC

 FILE SIZES:   FILE 1:    47.7 MBYTE,  FILE 4:   121.7 MBYTE,   TOTAL:    169.4 MBYTE

 OPERATOR DM      FOR CENTER  0  COORDINATES:    0.000000    0.000000    0.000000


 **********************************************************************************************************************************
 DATASETS  * FILE   NREC   LENGTH (MB)   RECORD NAMES
              1      19       47.74       500      610      700      900      950      970     1000      129      960     1100   
                                          VAR    BASINP    GEOM    SYMINP    ZMAT    AOBASIS   BASIS     P2S    ABASIS      S 
                                         1400     1410     1200     1210     1080     1600     1650     1300     1700   
                                           T        V       H0       H01     AOSYM     SMH    MOLCAS    ERIS     OPER   

              2       3        0.38       700     1000     2100   
                                         GEOM     BASIS     RHF  

 PROGRAMS   *        TOTAL       INT   CCSD(T)        HF       INT   CCSD(T)        HF       INT
 CPU TIMES  *        19.46      4.14      3.39      0.09      4.17      3.36      0.13      4.13
 REAL TIME  *        20.67 SEC
 DISK USED  *       250.05 MB      
 GA USED    *         0.00 MB       (max)       0.00 MB       (current)
 **********************************************************************************************************************************

1PROGRAM * RHF-SCF (CLOSED SHELL)       Authors: W. Meyer, H.-J. Werner


 NUMBER OF ELECTRONS:      18+   18-
 CONVERGENCE THRESHOLDS:    1.00E-05 (Density)    1.00E-07 (Energy)
 MAX. NUMBER OF ITERATIONS:       60
 INTERPOLATION TYPE:            DIIS
 INTERPOLATION STEPS:              2 (START)      1 (STEP)
 LEVEL SHIFTS:                  0.00 (CLOSED)  0.00 (OPEN) 



 Molecular orbitals read from record     2100.2  Type=RHF/CANONICAL (state 1.1)

 Molecular orbital dump at record        2100.2

 ITERATION    DDIFF          GRAD             ENERGY        2-EL.EN.            DIPOLE MOMENTS         DIIS
    1      0.000D+00      0.000D+00     -1053.63254057    903.537578    0.00000    0.00000    0.00000    0
    2      0.000D+00      0.916D-04     -1053.63254665    903.553832    0.00000    0.00000    0.00000    1
    3      0.169D-03      0.132D-04     -1053.63254679    903.548484    0.00000    0.00000    0.00000    2
    4      0.302D-04      0.298D-05     -1053.63254680    903.550048    0.00000    0.00000    0.00000    3
    5      0.643D-05      0.525D-06     -1053.63254680    903.549955    0.00000    0.00000    0.00000    0

 Final occupancy:   5   2   2   0   5   2   2   0

 !RHF STATE 1.1 Energy              -1053.632546798907
   --><property name="Energy" method="RHF" principal="true" stateSymmetry="1" stateNumber="1"
     value="-1053.63254679891"/><!--
 Nuclear energy                        48.91851110
 One-electron energy                -1554.32603535
 Two-electron energy                  451.77497746
 Virial quotient                       -0.99999401
 !RHF STATE 1.1 Dipole moment           0.00000000     0.00000000     0.00000000
 Dipole moment /Debye                   0.00000000     0.00000000     0.00000000
   --><property name="Dipole moment" method="RHF" principal="true" stateSymmetry="1"
     stateNumber="1" value="0.0 0.0 0.0"/><!--

 Orbital energies:

         1.1          2.1          3.1          4.1          5.1          6.1          7.1
   -118.609741   -12.321631    -9.570916    -1.278706    -0.603051     0.108698     0.136356

         1.2          2.2          3.2          4.2
     -9.570917    -0.592652     0.101384     0.287501

         1.3          2.3          3.3          4.3
     -9.570917    -0.592652     0.101384     0.287501

         1.4          2.4
      0.296287     0.768924

         1.5          2.5          3.5          4.5          5.5          6.5          7.5
   -118.609741   -12.321633    -9.570916    -1.275762    -0.579041     0.088792     0.226597

         1.6          2.6          3.6          4.6
     -9.570917    -0.588965     0.131823     0.407319

         1.7          2.7          3.7          4.7
     -9.570917    -0.588965     0.131823     0.407319

         1.8          2.8
      0.334859     0.789851


 **********************************************************************************************************************************
 DATASETS  * FILE   NREC   LENGTH (MB)   RECORD NAMES
              1      19       47.74       500      610      700      900      950      970     1000      129      960     1100   
                                          VAR    BASINP    GEOM    SYMINP    ZMAT    AOBASIS   BASIS     P2S    ABASIS      S 
                                         1400     1410     1200     1210     1080     1600     1650     1300     1700   
                                           T        V       H0       H01     AOSYM     SMH    MOLCAS    ERIS     OPER   

              2       3        0.38       700     1000     2100   
                                         GEOM     BASIS     RHF  

 PROGRAMS   *        TOTAL        HF       INT   CCSD(T)        HF       INT   CCSD(T)        HF       INT
 CPU TIMES  *        19.54      0.08      4.14      3.39      0.09      4.17      3.36      0.13      4.13
 REAL TIME  *        20.77 SEC
 DISK USED  *       250.05 MB      
 GA USED    *         0.00 MB       (max)       0.00 MB       (current)
 **********************************************************************************************************************************
   -->
   <time start="23:37:18" end="23:37:23" cpu="4.23" system="0.23" real="4.47"/>
   <storage units="megabyte" memory="65.84" sf="0.0" df="170.09" eaf="79.95" ga="0.0"/>
  </jobstep><!--
  --><jobstep command="CCSD(T)" commandset="CCSD">
   <!--


1PROGRAM * CCSD (Closed-shell coupled cluster)     Authors: C. Hampel, H.-J. Werner, 1991, M. Deegan, P.J. Knowles, 1992


 Convergence thresholds:  THRVAR = 1.00D-08  THRDEN = 1.00D-06

 CCSD(T)     terms to be evaluated (factor= 1.000)


 Number of core orbitals:          10 (   3   1   1   0   3   1   1   0 )
 Number of closed-shell orbitals:   8 (   2   1   1   0   2   1   1   0 )
 Number of external orbitals:     150 (  28  18  18  11  28  18  18  11 )

 Molecular orbitals read from record     2100.2  Type=RHF/CANONICAL (state 1.1)

 Number of N-1 electron functions:               8
 Number of N-2 electron functions:              36
 Number of singly external CSFs:               184
 Number of doubly external CSFs:             92912
 Total number of CSFs:                       93097

 Length of J-op  integral file:               0.00 MB
 Length of K-op  integral file:               0.31 MB
 Length of 3-ext integral record:             0.00 MB

 Memory could be reduced to 5.15 Mwords without degradation in triples

 Integral transformation finished. Total CPU:   0.11 sec, npass=  1  Memory used:   1.71 MW

 Reference energy:                  -1053.63254680

 MP2 singlet pair energy:              -0.30040114
 MP2 triplet pair energy:              -0.16533912
 MP2 correlation energy:               -0.46574026
 MP2 total energy:                  -1054.09828706

 SCS-MP2 correlation energy:           -0.46335904   (PS=  1.200000  PT=  0.333333)
 SCS-MP2 total energy:              -1054.09590584

 ITER.      SQ.NORM     CORR.ENERGY   TOTAL ENERGY   ENERGY CHANGE        DEN1      VAR(S)    VAR(P)  DIIS     TIME
   1      1.14644342    -0.49894181 -1054.13148861    -0.03320155    -0.02516115  0.11D-03  0.14D-02  1  1     0.29
   2      1.15258268    -0.50013431 -1054.13268111    -0.00119250    -0.00851870  0.30D-05  0.45D-04  2  2     0.49
   3      1.15326211    -0.50008003 -1054.13262683     0.00005428    -0.00061772  0.18D-06  0.23D-05  3  3     0.65
   4      1.15338844    -0.50009278 -1054.13263958    -0.00001275    -0.00004562  0.22D-07  0.75D-07  4  4     0.84
   5      1.15340509    -0.50009283 -1054.13263963    -0.00000005    -0.00000807  0.14D-08  0.32D-08  5  5     1.01
   6      1.15340669    -0.50009226 -1054.13263905     0.00000057    -0.00000089  0.21D-09  0.18D-09  6  6     1.19

 Norm of t1 vector:      0.01252459      S-energy:    -0.00000004      T1 diagnostic:  0.00221406
                                                                       D1 diagnostic:  0.00358756

 Total CPU time for triples:      2.28 sec


 RESULTS
 =======

  Reference energy                  -1053.632546798908
  CCSD singlet pair energy             -0.339758240733
  CCSD triplet pair energy             -0.160333971807
  CCSD correlation energy              -0.500092255451

  Triples (T) contribution             -0.017732434790
  Total correlation energy             -0.517824690241

  CCSD total energy                 -1054.132639054359
  CCSD[T] energy                    -1054.150403649164
  CCSD-T energy                     -1054.150381604583
 !CCSD(T) total energy              -1054.150371489149

 Timing summary (sec):

 STEP                 CPU(USER)    SYS     CPU(TOT)    WALL
 Transformation          0.12      0.04      0.16      0.15
 CCSD iterations         1.07      0.06      1.13      1.14
 Triples                 2.28      0.10      2.38      2.38

 Program statistics:

 Available memory in ccsd:                 7999644
 Min. memory needed in ccsd:                301383
 Max. memory used in ccsd:                  379719
 Max. memory used in cckext:                367247 ( 6 integral passes)

   --><property name="energy" method="Reference" stateSymmetry="1" stateNumber="1"
     value="-1053.63254679891"/>
      <property name="singlet pair energy" method="CCSD" stateSymmetry="1" stateNumber="1"
     value="-0.339758240732851"/>
      <property name="triplet pair energy" method="CCSD" stateSymmetry="1" stateNumber="1"
     value="-0.160333971807038"/>
      <property name="correlation energy" method="CCSD" stateSymmetry="1" stateNumber="1"
     value="-0.500092255451194"/>
      <property name="contribution" method="Triples (T)" stateSymmetry="1" stateNumber="1"
     value="-0.177324347899956E-01"/>
      <property name="correlation energy" method="Total" stateSymmetry="1" stateNumber="1"
     value="-0.51782469024119"/>
      <property name="total energy" method="CCSD" stateSymmetry="1" stateNumber="1"
     value="-1054.13263905436"/>
      <property name="energy" method="CCSD[T]" stateSymmetry="1" stateNumber="1"
     value="-1054.15040364916"/>
      <property name="energy" method="CCSD-T" stateSymmetry="1" stateNumber="1"
     value="-1054.15038160458"/>
      <property name="total energy" method="CCSD(T)" principal="true" stateSymmetry="1"
     stateNumber="1" value="-1054.15037148915"/><!--


 **********************************************************************************************************************************
 DATASETS  * FILE   NREC   LENGTH (MB)   RECORD NAMES
              1      20       63.67       500      610      700      900      950      970     1000      129      960     1100   
                                          VAR    BASINP    GEOM    SYMINP    ZMAT    AOBASIS   BASIS     P2S    ABASIS      S 
                                         1400     1410     1200     1210     1080     1600     1650     1300     1700     1380   
                                           T        V       H0       H01     AOSYM     SMH    MOLCAS    ERIS     OPER     JKOP   

              2       3        0.38       700     1000     2100   
                                         GEOM     BASIS     RHF  

 PROGRAMS   *        TOTAL   CCSD(T)        HF       INT   CCSD(T)        HF       INT   CCSD(T)        HF       INT
 CPU TIMES  *        23.03      3.49      0.08      4.14      3.39      0.09      4.17      3.36      0.13      4.13
 REAL TIME  *        24.47 SEC
 DISK USED  *       250.05 MB      
 GA USED    *         0.00 MB       (max)       0.00 MB       (current)
 **********************************************************************************************************************************
   -->
   <time start="23:37:23" end="23:37:26" cpu="3.49" system="0.2" real="3.7"/>
   <storage units="megabyte" memory="65.84" sf="0.0" df="170.09" eaf="79.95" ga="0.0"/>
  </jobstep><!--
 SETTING E_VDW          =     -1054.15037149  AU                              
 SETTING E(3)           =     -1054.15037149  AU                              

 DO I                   =         4.00000000   
 SETTING R              =         3.60731707  ANGSTREM                        
 SETTING DIST(4)        =         3.60731707  ANGSTREM                        
  --><jobstep command="HF-SCF" commandset="SCFPRO">
   <!--


 Recomputing integrals since geometry changed

1PROGRAM * SEWARD (Integral evaluation for generally contracted gaussian basis sets)     Author: Roland Lindh, 1990

 Geometry written to block  1 of record 700

 Orientation using atomic masses  
 Molecule type: Linear
 Symmetry elements: X,Y,Z
 Rotational constants:       1.9443906      1.9443906      0.0000000 GHz  (calculated with average atomic masses)

 Point group  D2h 


   --><cml:symmetry pointGroup="D2h"/><!--
   --><cml:atomArray>
    <cml:atom id="a1" elementType="Ar" x3="0.0" y3="0.0" z3="-1.80365853658537"/>
    <cml:atom id="a2" elementType="Ar" x3="0.0" y3="0.0" z3="1.80365853658537"/>
   </cml:atomArray><!--
   --><cml:bondArray>
   </cml:bondArray><!--

 ATOMIC COORDINATES

 NR  ATOM    CHARGE       X              Y              Z

   1  AR     18.00    0.000000000    0.000000000   -3.408420669
   2  AR     18.00    0.000000000    0.000000000    3.408420669

 NUCLEAR CHARGE:                   36
 NUMBER OF PRIMITIVE AOS:         274
 NUMBER OF SYMMETRY AOS:          224
 NUMBER OF CONTRACTIONS:          168   (  33Ag  +  20B3u +  20B2u +  11B1g +  33B1u +  20B2g +  20B3g +  11Au  )
 NUMBER OF CORE ORBITALS:          10   (   3Ag  +   1B3u +   1B2u +   0B1g +   3B1u +   1B2g +   1B3g +   0Au  )
 NUMBER OF VALENCE ORBITALS:        8   (   2Ag  +   1B3u +   1B2u +   0B1g +   2B1u +   1B2g +   1B3g +   0Au  )


 NUCLEAR REPULSION ENERGY   47.52934445

 EXTRA SYMMETRY OF AOS IN SYMMETRY 1:   1 1 1 1 1 1 1 1 1 1   1 1 1 1 2 1 2 1 2 1   2 1 2 1 2 1 2 1 3 2   1 3 2
 EXTRA SYMMETRY OF AOS IN SYMMETRY 2:   1 1 1 1 1 1 1 1 1 1   1 2 1 2 1 2 1 2 1 2
 EXTRA SYMMETRY OF AOS IN SYMMETRY 3:   1 1 1 1 1 1 1 1 1 1   1 2 1 2 1 2 1 2 1 2
 EXTRA SYMMETRY OF AOS IN SYMMETRY 4:   1 1 1 1 1 1 1 1 2 1   2
 EXTRA SYMMETRY OF AOS IN SYMMETRY 5:   1 1 1 1 1 1 1 1 1 1   1 1 1 1 2 1 2 1 2 1   2 1 2 1 2 1 2 1 3 2   1 3 2
 EXTRA SYMMETRY OF AOS IN SYMMETRY 6:   1 1 1 1 1 1 1 1 1 1   1 2 1 2 1 2 1 2 1 2
 EXTRA SYMMETRY OF AOS IN SYMMETRY 7:   1 1 1 1 1 1 1 1 1 1   1 2 1 2 1 2 1 2 1 2
 EXTRA SYMMETRY OF AOS IN SYMMETRY 8:   1 1 1 1 1 1 1 1 2 1   2

 Eigenvalues of metric

         1 0.201E-03 0.675E-03 0.110E-01 0.482E-01 0.682E-01 0.840E-01 0.940E-01 0.101E+00
         2 0.685E-03 0.546E-01 0.829E-01 0.984E-01 0.106E+00 0.288E+00 0.339E+00 0.344E+00
         3 0.685E-03 0.546E-01 0.829E-01 0.984E-01 0.106E+00 0.288E+00 0.339E+00 0.344E+00
         4 0.840E-01 0.101E+00 0.339E+00 0.340E+00 0.396E+00 0.704E+00 0.117E+01 0.166E+01
         5 0.196E-03 0.643E-03 0.580E-02 0.159E-01 0.385E-01 0.799E-01 0.823E-01 0.854E-01
         6 0.679E-03 0.480E-01 0.630E-01 0.895E-01 0.979E-01 0.207E+00 0.299E+00 0.338E+00
         7 0.679E-03 0.480E-01 0.630E-01 0.895E-01 0.979E-01 0.207E+00 0.299E+00 0.338E+00
         8 0.799E-01 0.955E-01 0.336E+00 0.339E+00 0.366E+00 0.694E+00 0.110E+01 0.166E+01


 Contracted 2-electron integrals neglected if value below      1.0D-11
 AO integral compression algorithm  1   Integral accuracy      1.0D-11

     79.167 MB (compressed) written to integral file ( 41.5%)

     Node minimum: 79.167 MB, node maximum: 79.167 MB


 NUMBER OF SORTED TWO-ELECTRON INTEGRALS:   13027854.     BUFFER LENGTH:  32768
 NUMBER OF SEGMENTS:   2  SEGMENT LENGTH:    6670587      RECORD LENGTH: 524288

 Memory used in sort:       7.23 MW

 SORT1 READ    23909504. AND WROTE     9952137. INTEGRALS IN     29 RECORDS. CPU TIME:     0.47 SEC, REAL TIME:     0.57 SEC
 SORT2 READ     9952137. AND WROTE    13027854. INTEGRALS IN    302 RECORDS. CPU TIME:     0.34 SEC, REAL TIME:     0.40 SEC

 FILE SIZES:   FILE 1:    47.6 MBYTE,  FILE 4:   121.7 MBYTE,   TOTAL:    169.3 MBYTE

 OPERATOR DM      FOR CENTER  0  COORDINATES:    0.000000    0.000000    0.000000


 **********************************************************************************************************************************
 DATASETS  * FILE   NREC   LENGTH (MB)   RECORD NAMES
              1      19       47.64       500      610      700      900      950      970     1000      129      960     1100   
                                          VAR    BASINP    GEOM    SYMINP    ZMAT    AOBASIS   BASIS     P2S    ABASIS      S 
                                         1400     1410     1200     1210     1080     1600     1650     1300     1700   
                                           T        V       H0       H01     AOSYM     SMH    MOLCAS    ERIS     OPER   

              2       3        0.38       700     1000     2100   
                                         GEOM     BASIS     RHF  

 PROGRAMS   *        TOTAL       INT   CCSD(T)        HF       INT   CCSD(T)        HF       INT   CCSD(T)        HF       INT
 CPU TIMES  *        27.14      4.11      3.49      0.08      4.14      3.39      0.09      4.17      3.36      0.13      4.13
 REAL TIME  *        28.79 SEC
 DISK USED  *       250.05 MB      
 GA USED    *         0.00 MB       (max)       0.00 MB       (current)
 **********************************************************************************************************************************

1PROGRAM * RHF-SCF (CLOSED SHELL)       Authors: W. Meyer, H.-J. Werner


 NUMBER OF ELECTRONS:      18+   18-
 CONVERGENCE THRESHOLDS:    1.00E-05 (Density)    1.00E-07 (Energy)
 MAX. NUMBER OF ITERATIONS:       60
 INTERPOLATION TYPE:            DIIS
 INTERPOLATION STEPS:              2 (START)      1 (STEP)
 LEVEL SHIFTS:                  0.00 (CLOSED)  0.00 (OPEN) 



 Molecular orbitals read from record     2100.2  Type=RHF/CANONICAL (state 1.1)

 Molecular orbital dump at record        2100.2

 ITERATION    DDIFF          GRAD             ENERGY        2-EL.EN.            DIPOLE MOMENTS         DIIS
    1      0.000D+00      0.000D+00     -1053.63287461    900.754304    0.00000    0.00000    0.00000    0
    2      0.000D+00      0.758D-04     -1053.63287865    900.767218    0.00000    0.00000    0.00000    1
    3      0.130D-03      0.103D-04     -1053.63287874    900.762935    0.00000    0.00000    0.00000    2
    4      0.233D-04      0.231D-05     -1053.63287874    900.764167    0.00000    0.00000    0.00000    3
    5      0.511D-05      0.365D-06     -1053.63287874    900.764087    0.00000    0.00000    0.00000    0

 Final occupancy:   5   2   2   0   5   2   2   0

 !RHF STATE 1.1 Energy              -1053.632878740518
   --><property name="Energy" method="RHF" principal="true" stateSymmetry="1" stateNumber="1"
     value="-1053.63287874052"/><!--
 Nuclear energy                        47.52934445
 One-electron energy                -1551.54426683
 Two-electron energy                  450.38204363
 Virial quotient                       -0.99999779
 !RHF STATE 1.1 Dipole moment           0.00000000     0.00000000     0.00000000
 Dipole moment /Debye                   0.00000000     0.00000000     0.00000000
   --><property name="Dipole moment" method="RHF" principal="true" stateSymmetry="1"
     stateNumber="1" value="0.0 0.0 0.0"/><!--

 Orbital energies:

         1.1          2.1          3.1          4.1          5.1          6.1          7.1
   -118.609933   -12.321796    -9.571082    -1.278400    -0.601032     0.108639     0.134963

         1.2          2.2          3.2          4.2
     -9.571084    -0.592350     0.101045     0.286321

         1.3          2.3          3.3          4.3
     -9.571084    -0.592350     0.101045     0.286321

         1.4          2.4
      0.297687     0.768821

         1.5          2.5          3.5          4.5          5.5          6.5          7.5
   -118.609933   -12.321797    -9.571082    -1.276145    -0.581081     0.089687     0.223757

         1.6          2.6          3.6          4.6
     -9.571084    -0.589387     0.131406     0.402055

         1.7          2.7          3.7          4.7
     -9.571084    -0.589387     0.131406     0.402055

         1.8          2.8
      0.332888     0.789376


 **********************************************************************************************************************************
 DATASETS  * FILE   NREC   LENGTH (MB)   RECORD NAMES
              1      19       47.64       500      610      700      900      950      970     1000      129      960     1100   
                                          VAR    BASINP    GEOM    SYMINP    ZMAT    AOBASIS   BASIS     P2S    ABASIS      S 
                                         1400     1410     1200     1210     1080     1600     1650     1300     1700   
                                           T        V       H0       H01     AOSYM     SMH    MOLCAS    ERIS     OPER   

              2       3        0.38       700     1000     2100   
                                         GEOM     BASIS     RHF  

 PROGRAMS   *        TOTAL        HF       INT   CCSD(T)        HF       INT   CCSD(T)        HF       INT   CCSD(T)        HF
 CPU TIMES  *        27.22      0.08      4.11      3.49      0.08      4.14      3.39      0.09      4.17      3.36      0.13
 REAL TIME  *        28.90 SEC
 DISK USED  *       250.05 MB      
 GA USED    *         0.00 MB       (max)       0.00 MB       (current)
 **********************************************************************************************************************************
   -->
   <time start="23:37:26" end="23:37:31" cpu="4.19" system="0.23" real="4.43"/>
   <storage units="megabyte" memory="65.84" sf="0.0" df="170.09" eaf="79.95" ga="0.0"/>
  </jobstep><!--
  --><jobstep command="CCSD(T)" commandset="CCSD">
   <!--


1PROGRAM * CCSD (Closed-shell coupled cluster)     Authors: C. Hampel, H.-J. Werner, 1991, M. Deegan, P.J. Knowles, 1992


 Convergence thresholds:  THRVAR = 1.00D-08  THRDEN = 1.00D-06

 CCSD(T)     terms to be evaluated (factor= 1.000)


 Number of core orbitals:          10 (   3   1   1   0   3   1   1   0 )
 Number of closed-shell orbitals:   8 (   2   1   1   0   2   1   1   0 )
 Number of external orbitals:     150 (  28  18  18  11  28  18  18  11 )

 Molecular orbitals read from record     2100.2  Type=RHF/CANONICAL (state 1.1)

 Number of N-1 electron functions:               8
 Number of N-2 electron functions:              36
 Number of singly external CSFs:               184
 Number of doubly external CSFs:             92912
 Total number of CSFs:                       93097

 Length of J-op  integral file:               0.00 MB
 Length of K-op  integral file:               0.31 MB
 Length of 3-ext integral record:             0.00 MB

 Memory could be reduced to 5.15 Mwords without degradation in triples

 Integral transformation finished. Total CPU:   0.13 sec, npass=  1  Memory used:   1.71 MW

 Reference energy:                  -1053.63287874

 MP2 singlet pair energy:              -0.30033106
 MP2 triplet pair energy:              -0.16517084
 MP2 correlation energy:               -0.46550190
 MP2 total energy:                  -1054.09838064

 SCS-MP2 correlation energy:           -0.46317024   (PS=  1.200000  PT=  0.333333)
 SCS-MP2 total energy:              -1054.09604898

 ITER.      SQ.NORM     CORR.ENERGY   TOTAL ENERGY   ENERGY CHANGE        DEN1      VAR(S)    VAR(P)  DIIS     TIME
   1      1.14640464    -0.49875108 -1054.13162982    -0.03324918    -0.02520657  0.11D-03  0.14D-02  1  1     0.31
   2      1.15254515    -0.49994353 -1054.13282227    -0.00119244    -0.00852272  0.30D-05  0.45D-04  2  2     0.47
   3      1.15322327    -0.49988963 -1054.13276837     0.00005390    -0.00061659  0.17D-06  0.23D-05  3  3     0.64
   4      1.15334901    -0.49990248 -1054.13278122    -0.00001285    -0.00004532  0.22D-07  0.74D-07  4  4     0.82
   5      1.15336561    -0.49990249 -1054.13278123    -0.00000001    -0.00000813  0.13D-08  0.31D-08  5  5     1.00
   6      1.15336715    -0.49990193 -1054.13278067     0.00000056    -0.00000084  0.20D-09  0.18D-09  6  6     1.18

 Norm of t1 vector:      0.01248645      S-energy:    -0.00000004      T1 diagnostic:  0.00220731
                                                                       D1 diagnostic:  0.00353334

 Total CPU time for triples:      2.33 sec


 RESULTS
 =======

  Reference energy                  -1053.632878740518
  CCSD singlet pair energy             -0.339712129008
  CCSD triplet pair energy             -0.160189757712
  CCSD correlation energy              -0.499901927241

  Triples (T) contribution             -0.017704408324
  Total correlation energy             -0.517606335565

  CCSD total energy                 -1054.132780667759
  CCSD[T] energy                    -1054.150517356677
  CCSD-T energy                     -1054.150495265495
 !CCSD(T) total energy              -1054.150485076083

 Timing summary (sec):

 STEP                 CPU(USER)    SYS     CPU(TOT)    WALL
 Transformation          0.13      0.02      0.15      0.15
 CCSD iterations         1.05      0.09      1.14      1.14
 Triples                 2.33      0.06      2.39      2.40

 Program statistics:

 Available memory in ccsd:                 7999644
 Min. memory needed in ccsd:                301383
 Max. memory used in ccsd:                  379719
 Max. memory used in cckext:                367247 ( 6 integral passes)

   --><property name="energy" method="Reference" stateSymmetry="1" stateNumber="1"
     value="-1053.63287874052"/>
      <property name="singlet pair energy" method="CCSD" stateSymmetry="1" stateNumber="1"
     value="-0.339712129007674"/>
      <property name="triplet pair energy" method="CCSD" stateSymmetry="1" stateNumber="1"
     value="-0.16018975771237"/>
      <property name="correlation energy" method="CCSD" stateSymmetry="1" stateNumber="1"
     value="-0.499901927241012"/>
      <property name="contribution" method="Triples (T)" stateSymmetry="1" stateNumber="1"
     value="-0.177044083237223E-01"/>
      <property name="correlation energy" method="Total" stateSymmetry="1" stateNumber="1"
     value="-0.517606335564734"/>
      <property name="total energy" method="CCSD" stateSymmetry="1" stateNumber="1"
     value="-1054.13278066776"/>
      <property name="energy" method="CCSD[T]" stateSymmetry="1" stateNumber="1"
     value="-1054.15051735668"/>
      <property name="energy" method="CCSD-T" stateSymmetry="1" stateNumber="1"
     value="-1054.15049526549"/>
      <property name="total energy" method="CCSD(T)" principal="true" stateSymmetry="1"
     stateNumber="1" value="-1054.15048507608"/><!--


 **********************************************************************************************************************************
 DATASETS  * FILE   NREC   LENGTH (MB)   RECORD NAMES
              1      20       63.58       500      610      700      900      950      970     1000      129      960     1100   
                                          VAR    BASINP    GEOM    SYMINP    ZMAT    AOBASIS   BASIS     P2S    ABASIS      S 
                                         1400     1410     1200     1210     1080     1600     1650     1300     1700     1380   
                                           T        V       H0       H01     AOSYM     SMH    MOLCAS    ERIS     OPER     JKOP   

              2       3        0.38       700     1000     2100   
                                         GEOM     BASIS     RHF  

 PROGRAMS   *        TOTAL   CCSD(T)        HF       INT   CCSD(T)        HF       INT   CCSD(T)        HF       INT   CCSD(T)
 CPU TIMES  *        30.75      3.53      0.08      4.11      3.49      0.08      4.14      3.39      0.09      4.17      3.36
 REAL TIME  *        32.62 SEC
 DISK USED  *       250.05 MB      
 GA USED    *         0.00 MB       (max)       0.00 MB       (current)
 **********************************************************************************************************************************
   -->
   <time start="23:37:31" end="23:37:34" cpu="3.53" system="0.17" real="3.72"/>
   <storage units="megabyte" memory="65.84" sf="0.0" df="170.09" eaf="79.95" ga="0.0"/>
  </jobstep><!--
 SETTING E_VDW          =     -1054.15048508  AU                              
 SETTING E(4)           =     -1054.15048508  AU                              

 DO I                   =         5.00000000   
 SETTING R              =         3.70975610  ANGSTREM                        
 SETTING DIST(5)        =         3.70975610  ANGSTREM                        
  --><jobstep command="HF-SCF" commandset="SCFPRO">
   <!--


 Recomputing integrals since geometry changed

1PROGRAM * SEWARD (Integral evaluation for generally contracted gaussian basis sets)     Author: Roland Lindh, 1990

 Geometry written to block  1 of record 700

 Orientation using atomic masses  
 Molecule type: Linear
 Symmetry elements: X,Y,Z
 Rotational constants:       1.8384907      1.8384907      0.0000000 GHz  (calculated with average atomic masses)

 Point group  D2h 


   --><cml:symmetry pointGroup="D2h"/><!--
   --><cml:atomArray>
    <cml:atom id="a1" elementType="Ar" x3="0.0" y3="0.0" z3="-1.85487804878049"/>
    <cml:atom id="a2" elementType="Ar" x3="0.0" y3="0.0" z3="1.85487804878049"/>
   </cml:atomArray><!--
   --><cml:bondArray>
   </cml:bondArray><!--

 ATOMIC COORDINATES

 NR  ATOM    CHARGE       X              Y              Z

   1  AR     18.00    0.000000000    0.000000000   -3.505211519
   2  AR     18.00    0.000000000    0.000000000    3.505211519

 NUCLEAR CHARGE:                   36
 NUMBER OF PRIMITIVE AOS:         274
 NUMBER OF SYMMETRY AOS:          224
 NUMBER OF CONTRACTIONS:          168   (  33Ag  +  20B3u +  20B2u +  11B1g +  33B1u +  20B2g +  20B3g +  11Au  )
 NUMBER OF CORE ORBITALS:          10   (   3Ag  +   1B3u +   1B2u +   0B1g +   3B1u +   1B2g +   1B3g +   0Au  )
 NUMBER OF VALENCE ORBITALS:        8   (   2Ag  +   1B3u +   1B2u +   0B1g +   2B1u +   1B2g +   1B3g +   0Au  )


 NUCLEAR REPULSION ENERGY   46.21689707

 EXTRA SYMMETRY OF AOS IN SYMMETRY 1:   1 1 1 1 1 1 1 1 1 1   1 1 1 1 2 1 2 1 2 1   2 1 2 1 2 1 2 1 3 2   1 3 2
 EXTRA SYMMETRY OF AOS IN SYMMETRY 2:   1 1 1 1 1 1 1 1 1 1   1 2 1 2 1 2 1 2 1 2
 EXTRA SYMMETRY OF AOS IN SYMMETRY 3:   1 1 1 1 1 1 1 1 1 1   1 2 1 2 1 2 1 2 1 2
 EXTRA SYMMETRY OF AOS IN SYMMETRY 4:   1 1 1 1 1 1 1 1 2 1   2
 EXTRA SYMMETRY OF AOS IN SYMMETRY 5:   1 1 1 1 1 1 1 1 1 1   1 1 1 1 2 1 2 1 2 1   2 1 2 1 2 1 2 1 3 2   1 3 2
 EXTRA SYMMETRY OF AOS IN SYMMETRY 6:   1 1 1 1 1 1 1 1 1 1   1 2 1 2 1 2 1 2 1 2
 EXTRA SYMMETRY OF AOS IN SYMMETRY 7:   1 1 1 1 1 1 1 1 1 1   1 2 1 2 1 2 1 2 1 2
 EXTRA SYMMETRY OF AOS IN SYMMETRY 8:   1 1 1 1 1 1 1 1 2 1   2

 Eigenvalues of metric

         1 0.201E-03 0.678E-03 0.111E-01 0.482E-01 0.711E-01 0.840E-01 0.940E-01 0.100E+00
         2 0.685E-03 0.546E-01 0.832E-01 0.983E-01 0.105E+00 0.287E+00 0.339E+00 0.342E+00
         3 0.685E-03 0.546E-01 0.832E-01 0.983E-01 0.105E+00 0.287E+00 0.339E+00 0.342E+00
         4 0.840E-01 0.100E+00 0.339E+00 0.340E+00 0.394E+00 0.703E+00 0.116E+01 0.166E+01
         5 0.197E-03 0.647E-03 0.620E-02 0.187E-01 0.393E-01 0.802E-01 0.841E-01 0.864E-01
         6 0.680E-03 0.484E-01 0.651E-01 0.912E-01 0.979E-01 0.211E+00 0.307E+00 0.339E+00
         7 0.680E-03 0.484E-01 0.651E-01 0.912E-01 0.979E-01 0.211E+00 0.307E+00 0.339E+00
         8 0.802E-01 0.962E-01 0.337E+00 0.339E+00 0.368E+00 0.695E+00 0.111E+01 0.166E+01


 Contracted 2-electron integrals neglected if value below      1.0D-11
 AO integral compression algorithm  1   Integral accuracy      1.0D-11

     78.905 MB (compressed) written to integral file ( 41.4%)

     Node minimum: 78.905 MB, node maximum: 78.905 MB


 NUMBER OF SORTED TWO-ELECTRON INTEGRALS:   13027854.     BUFFER LENGTH:  32768
 NUMBER OF SEGMENTS:   2  SEGMENT LENGTH:    6670587      RECORD LENGTH: 524288

 Memory used in sort:       7.23 MW

 SORT1 READ    23909504. AND WROTE     9951172. INTEGRALS IN     29 RECORDS. CPU TIME:     0.44 SEC, REAL TIME:     0.57 SEC
 SORT2 READ     9951172. AND WROTE    13027854. INTEGRALS IN    301 RECORDS. CPU TIME:     0.35 SEC, REAL TIME:     0.40 SEC

 FILE SIZES:   FILE 1:    47.5 MBYTE,  FILE 4:   121.7 MBYTE,   TOTAL:    169.2 MBYTE

 OPERATOR DM      FOR CENTER  0  COORDINATES:    0.000000    0.000000    0.000000


 **********************************************************************************************************************************
 DATASETS  * FILE   NREC   LENGTH (MB)   RECORD NAMES
              1      19       47.54       500      610      700      900      950      970     1000      129      960     1100   
                                          VAR    BASINP    GEOM    SYMINP    ZMAT    AOBASIS   BASIS     P2S    ABASIS      S 
                                         1400     1410     1200     1210     1080     1600     1650     1300     1700   
                                           T        V       H0       H01     AOSYM     SMH    MOLCAS    ERIS     OPER   

              2       3        0.38       700     1000     2100   
                                         GEOM     BASIS     RHF  

 PROGRAMS   *        TOTAL       INT   CCSD(T)        HF       INT   CCSD(T)        HF       INT   CCSD(T)        HF       INT
 CPU TIMES  *        34.77      4.01      3.53      0.08      4.11      3.49      0.08      4.14      3.39      0.09      4.17
 REAL TIME  *        36.90 SEC
 DISK USED  *       250.05 MB      
 GA USED    *         0.00 MB       (max)       0.00 MB       (current)
 **********************************************************************************************************************************

1PROGRAM * RHF-SCF (CLOSED SHELL)       Authors: W. Meyer, H.-J. Werner


 NUMBER OF ELECTRONS:      18+   18-
 CONVERGENCE THRESHOLDS:    1.00E-05 (Density)    1.00E-07 (Energy)
 MAX. NUMBER OF ITERATIONS:       60
 INTERPOLATION TYPE:            DIIS
 INTERPOLATION STEPS:              2 (START)      1 (STEP)
 LEVEL SHIFTS:                  0.00 (CLOSED)  0.00 (OPEN) 



 Molecular orbitals read from record     2100.2  Type=RHF/CANONICAL (state 1.1)

 Molecular orbital dump at record        2100.2

 ITERATION    DDIFF          GRAD             ENERGY        2-EL.EN.            DIPOLE MOMENTS         DIIS
    1      0.000D+00      0.000D+00     -1053.63310600    898.125766    0.00000    0.00000    0.00000    0
    2      0.000D+00      0.631D-04     -1053.63310869    898.135944    0.00000    0.00000    0.00000    1
    3      0.955D-04      0.810D-05     -1053.63310875    898.132552    0.00000    0.00000    0.00000    2
    4      0.179D-04      0.178D-05     -1053.63310875    898.133514    0.00000    0.00000    0.00000    3
    5      0.405D-05      0.258D-06     -1053.63310875    898.133441    0.00000    0.00000    0.00000    0

 Final occupancy:   5   2   2   0   5   2   2   0

 !RHF STATE 1.1 Energy              -1053.633108747228
   --><property name="Energy" method="RHF" principal="true" stateSymmetry="1" stateNumber="1"
     value="-1053.63310874723"/><!--
 Nuclear energy                        46.21689707
 One-electron energy                -1548.91672645
 Two-electron energy                  449.06672063
 Virial quotient                       -1.00000050
 !RHF STATE 1.1 Dipole moment           0.00000000     0.00000000     0.00000000
 Dipole moment /Debye                   0.00000000     0.00000000     0.00000000
   --><property name="Dipole moment" method="RHF" principal="true" stateSymmetry="1"
     stateNumber="1" value="0.0 0.0 0.0"/><!--

 Orbital energies:

         1.1          2.1          3.1          4.1          5.1          6.1          7.1
   -118.610077   -12.321920    -9.571207    -1.278169    -0.599344     0.108511     0.133552

         1.2          2.2          3.2          4.2
     -9.571209    -0.592107     0.100733     0.285363

         1.3          2.3          3.3          4.3
     -9.571209    -0.592107     0.100733     0.285363

         1.4          2.4
      0.299065     0.768882

         1.5          2.5          3.5          4.5          5.5          6.5          7.5
   -118.610077   -12.321921    -9.571207    -1.276442    -0.582781     0.090587     0.220939

         1.6          2.6          3.6          4.6
     -9.571209    -0.589725     0.130975     0.396778

         1.7          2.7          3.7          4.7
     -9.571209    -0.589725     0.130975     0.396778

         1.8          2.8
      0.331050     0.788870


 **********************************************************************************************************************************
 DATASETS  * FILE   NREC   LENGTH (MB)   RECORD NAMES
              1      19       47.54       500      610      700      900      950      970     1000      129      960     1100   
                                          VAR    BASINP    GEOM    SYMINP    ZMAT    AOBASIS   BASIS     P2S    ABASIS      S 
                                         1400     1410     1200     1210     1080     1600     1650     1300     1700   
                                           T        V       H0       H01     AOSYM     SMH    MOLCAS    ERIS     OPER   

              2       3        0.38       700     1000     2100   
                                         GEOM     BASIS     RHF  

 PROGRAMS   *        TOTAL        HF       INT   CCSD(T)        HF       INT   CCSD(T)        HF       INT   CCSD(T)        HF
 CPU TIMES  *        34.86      0.09      4.01      3.53      0.08      4.11      3.49      0.08      4.14      3.39      0.09
 REAL TIME  *        37.01 SEC
 DISK USED  *       250.05 MB      
 GA USED    *         0.00 MB       (max)       0.00 MB       (current)
 **********************************************************************************************************************************
   -->
   <time start="23:37:35" end="23:37:39" cpu="4.11" system="0.28" real="4.39"/>
   <storage units="megabyte" memory="65.84" sf="0.0" df="170.09" eaf="79.95" ga="0.0"/>
  </jobstep><!--
  --><jobstep command="CCSD(T)" commandset="CCSD">
   <!--


1PROGRAM * CCSD (Closed-shell coupled cluster)     Authors: C. Hampel, H.-J. Werner, 1991, M. Deegan, P.J. Knowles, 1992


 Convergence thresholds:  THRVAR = 1.00D-08  THRDEN = 1.00D-06

 CCSD(T)     terms to be evaluated (factor= 1.000)


 Number of core orbitals:          10 (   3   1   1   0   3   1   1   0 )
 Number of closed-shell orbitals:   8 (   2   1   1   0   2   1   1   0 )
 Number of external orbitals:     150 (  28  18  18  11  28  18  18  11 )

 Molecular orbitals read from record     2100.2  Type=RHF/CANONICAL (state 1.1)

 Number of N-1 electron functions:               8
 Number of N-2 electron functions:              36
 Number of singly external CSFs:               184
 Number of doubly external CSFs:             92912
 Total number of CSFs:                       93097

 Length of J-op  integral file:               0.00 MB
 Length of K-op  integral file:               0.31 MB
 Length of 3-ext integral record:             0.00 MB

 Memory could be reduced to 5.15 Mwords without degradation in triples

 Integral transformation finished. Total CPU:   0.12 sec, npass=  1  Memory used:   1.71 MW

 Reference energy:                  -1053.63310875

 MP2 singlet pair energy:              -0.30027390
 MP2 triplet pair energy:              -0.16503257
 MP2 correlation energy:               -0.46530647
 MP2 total energy:                  -1054.09841521

 SCS-MP2 correlation energy:           -0.46301561   (PS=  1.200000  PT=  0.333333)
 SCS-MP2 total energy:              -1054.09612436

 ITER.      SQ.NORM     CORR.ENERGY   TOTAL ENERGY   ENERGY CHANGE        DEN1      VAR(S)    VAR(P)  DIIS     TIME
[...]

 SORT1 READ    23909504. AND WROTE     9720048. INTEGRALS IN     29 RECORDS. CPU TIME:     0.44 SEC, REAL TIME:     0.55 SEC
 SORT2 READ     9720048. AND WROTE    13027854. INTEGRALS IN    272 RECORDS. CPU TIME:     0.32 SEC, REAL TIME:     0.40 SEC

 FILE SIZES:   FILE 1:    43.7 MBYTE,  FILE 4:   121.7 MBYTE,   TOTAL:    165.4 MBYTE

 OPERATOR DM      FOR CENTER  0  COORDINATES:    0.000000    0.000000    0.000000


 **********************************************************************************************************************************
 DATASETS  * FILE   NREC   LENGTH (MB)   RECORD NAMES
              1      19       43.75       500      610      700      900      950      970     1000      129      960     1100   
                                          VAR    BASINP    GEOM    SYMINP    ZMAT    AOBASIS   BASIS     P2S    ABASIS      S 
                                         1400     1410     1200     1210     1080     1600     1650     1300     1700   
                                           T        V       H0       H01     AOSYM     SMH    MOLCAS    ERIS     OPER   

              2       3        0.38       700     1000     2100   
                                         GEOM     BASIS     RHF  

 PROGRAMS   *        TOTAL       INT   CCSD(T)        HF       INT   CCSD(T)        HF       INT   CCSD(T)        HF       INT
 CPU TIMES  *       278.75      2.30      3.45      0.07      2.35      3.47      0.06      2.39      3.50      0.06      2.50
 REAL TIME  *       296.71 SEC
 DISK USED  *       250.05 MB      
 GA USED    *         0.00 MB       (max)       0.00 MB       (current)
 **********************************************************************************************************************************

1PROGRAM * RHF-SCF (CLOSED SHELL)       Authors: W. Meyer, H.-J. Werner


 NUMBER OF ELECTRONS:      18+   18-
 CONVERGENCE THRESHOLDS:    1.00E-05 (Density)    1.00E-07 (Energy)
 MAX. NUMBER OF ITERATIONS:       60
 INTERPOLATION TYPE:            DIIS
 INTERPOLATION STEPS:              2 (START)      1 (STEP)
 LEVEL SHIFTS:                  0.00 (CLOSED)  0.00 (OPEN) 



 Molecular orbitals read from record     2100.2  Type=RHF/CANONICAL (state 1.1)

 Molecular orbital dump at record        2100.2

 ITERATION    DDIFF          GRAD             ENERGY        2-EL.EN.            DIPOLE MOMENTS         DIIS
    1      0.000D+00      0.000D+00     -1053.63360990    851.403443    0.00000    0.00000    0.00000    0
    2      0.000D+00      0.199D-05     -1053.63360990    851.403400    0.00000    0.00000    0.00000    1
    3      0.542D-05      0.162D-06     -1053.63360990    851.403406    0.00000    0.00000    0.00000    0

 Final occupancy:   5   2   2   0   5   2   2   0

 !RHF STATE 1.1 Energy              -1053.633609904837
   --><property name="Energy" method="RHF" principal="true" stateSymmetry="1" stateNumber="1"
     value="-1053.63360990484"/><!--
 Nuclear energy                        22.86045543
 One-electron energy                -1502.19576846
 Two-electron energy                  425.70170312
 Virial quotient                       -1.00000694
 !RHF STATE 1.1 Dipole moment           0.00000000     0.00000000     0.00000000
 Dipole moment /Debye                   0.00000000     0.00000000     0.00000000
   --><property name="Dipole moment" method="RHF" principal="true" stateSymmetry="1"
     stateNumber="1" value="0.0 0.0 0.0"/><!--

 Orbital energies:

         1.1          2.1          3.1          4.1          5.1          6.1          7.1
   -118.610475   -12.322273    -9.571563    -1.277430    -0.591080     0.091248     0.120547

         1.2          2.2          3.2          4.2
     -9.571563    -0.591075     0.105980     0.314116

         1.3          2.3          3.3          4.3
     -9.571563    -0.591075     0.105980     0.314116

         1.4          2.4
      0.314331     0.778060

         1.5          2.5          3.5          4.5          5.5          6.5          7.5
   -118.610475   -12.322273    -9.571563    -1.277430    -0.591070     0.115800     0.138174

         1.6          2.6          3.6          4.6
     -9.571563    -0.591074     0.113256     0.314599

         1.7          2.7          3.7          4.7
     -9.571563    -0.591074     0.113256     0.314599

         1.8          2.8
      0.314355     0.778082


 **********************************************************************************************************************************
 DATASETS  * FILE   NREC   LENGTH (MB)   RECORD NAMES
              1      19       43.75       500      610      700      900      950      970     1000      129      960     1100   
                                          VAR    BASINP    GEOM    SYMINP    ZMAT    AOBASIS   BASIS     P2S    ABASIS      S 
                                         1400     1410     1200     1210     1080     1600     1650     1300     1700   
                                           T        V       H0       H01     AOSYM     SMH    MOLCAS    ERIS     OPER   

              2       3        0.38       700     1000     2100   
                                         GEOM     BASIS     RHF  

 PROGRAMS   *        TOTAL        HF       INT   CCSD(T)        HF       INT   CCSD(T)        HF       INT   CCSD(T)        HF
 CPU TIMES  *       278.81      0.06      2.30      3.45      0.07      2.35      3.47      0.06      2.39      3.50      0.06
 REAL TIME  *       296.78 SEC
 DISK USED  *       250.05 MB      
 GA USED    *         0.00 MB       (max)       0.00 MB       (current)
 **********************************************************************************************************************************
   -->
   <time start="23:41:56" end="23:41:59" cpu="2.36" system="0.25" real="2.62"/>
   <storage units="megabyte" memory="65.84" sf="0.0" df="170.09" eaf="79.95" ga="0.0"/>
  </jobstep><!--
  --><jobstep command="CCSD(T)" commandset="CCSD">
   <!--


1PROGRAM * CCSD (Closed-shell coupled cluster)     Authors: C. Hampel, H.-J. Werner, 1991, M. Deegan, P.J. Knowles, 1992


 Convergence thresholds:  THRVAR = 1.00D-08  THRDEN = 1.00D-06

 CCSD(T)     terms to be evaluated (factor= 1.000)


 Number of core orbitals:          10 (   3   1   1   0   3   1   1   0 )
 Number of closed-shell orbitals:   8 (   2   1   1   0   2   1   1   0 )
 Number of external orbitals:     150 (  28  18  18  11  28  18  18  11 )

 Molecular orbitals read from record     2100.2  Type=RHF/CANONICAL (state 1.1)

 Number of N-1 electron functions:               8
 Number of N-2 electron functions:              36
 Number of singly external CSFs:               184
 Number of doubly external CSFs:             92912
 Total number of CSFs:                       93097

 Length of J-op  integral file:               0.00 MB
 Length of K-op  integral file:               0.31 MB
 Length of 3-ext integral record:             0.00 MB

 Memory could be reduced to 5.15 Mwords without degradation in triples

 Integral transformation finished. Total CPU:   0.13 sec, npass=  1  Memory used:   1.71 MW

 Reference energy:                  -1053.63360990

 MP2 singlet pair energy:              -0.29997385
 MP2 triplet pair energy:              -0.16433117
 MP2 correlation energy:               -0.46430502
 MP2 total energy:                  -1054.09791492

 SCS-MP2 correlation energy:           -0.46221912   (PS=  1.200000  PT=  0.333333)
 SCS-MP2 total energy:              -1054.09582903

 ITER.      SQ.NORM     CORR.ENERGY   TOTAL ENERGY   ENERGY CHANGE        DEN1      VAR(S)    VAR(P)  DIIS     TIME
   1      1.14615300    -0.49780144 -1054.13141135    -0.03349643    -0.02544167  0.11D-03  0.14D-02  1  1     0.30
   2      1.15229645    -0.49899317 -1054.13260307    -0.00119173    -0.00854386  0.30D-05  0.45D-04  2  2     0.47
   3      1.15296693    -0.49894115 -1054.13255106     0.00005202    -0.00061043  0.13D-06  0.23D-05  3  3     0.66
   4      1.15308926    -0.49895452 -1054.13256442    -0.00001336    -0.00004397  0.21D-07  0.72D-07  4  4     0.84
   5      1.15310545    -0.49895431 -1054.13256422     0.00000021    -0.00000844  0.11D-08  0.29D-08  5  5     1.02
   6      1.15310655    -0.49895381 -1054.13256371     0.00000050    -0.00000055  0.20D-09  0.14D-09  6  6     1.19

 Norm of t1 vector:      0.01237682      S-energy:    -0.00000004      T1 diagnostic:  0.00218793
                                                                       D1 diagnostic:  0.00314637

 Total CPU time for triples:      2.29 sec


 RESULTS
 =======

  Reference energy                  -1053.633609904838
  CCSD singlet pair energy             -0.339482359432
  CCSD triplet pair energy             -0.159471403515
  CCSD correlation energy              -0.498953807647

  Triples (T) contribution             -0.017556635130
  Total correlation energy             -0.516510442777

  CCSD total energy                 -1054.132563712485
  CCSD[T] energy                    -1054.150153416003
  CCSD-T energy                     -1054.150130729999
 !CCSD(T) total energy              -1054.150120347615

 Timing summary (sec):

 STEP                 CPU(USER)    SYS     CPU(TOT)    WALL
 Transformation          0.13      0.02      0.15      0.15
 CCSD iterations         1.06      0.09      1.15      1.16
 Triples                 2.29      0.06      2.35      2.35

 Program statistics:

 Available memory in ccsd:                 7999644
 Min. memory needed in ccsd:                301383
 Max. memory used in ccsd:                  379719
 Max. memory used in cckext:                367247 ( 6 integral passes)

   --><property name="energy" method="Reference" stateSymmetry="1" stateNumber="1"
     value="-1053.63360990484"/>
      <property name="singlet pair energy" method="CCSD" stateSymmetry="1" stateNumber="1"
     value="-0.339482359432433"/>
      <property name="triplet pair energy" method="CCSD" stateSymmetry="1" stateNumber="1"
     value="-0.15947140351482"/>
      <property name="correlation energy" method="CCSD" stateSymmetry="1" stateNumber="1"
     value="-0.498953807646967"/>
      <property name="contribution" method="Triples (T)" stateSymmetry="1" stateNumber="1"
     value="-0.175566351301679E-01"/>
      <property name="correlation energy" method="Total" stateSymmetry="1" stateNumber="1"
     value="-0.516510442777135"/>
      <property name="total energy" method="CCSD" stateSymmetry="1" stateNumber="1"
     value="-1054.13256371248"/>
      <property name="energy" method="CCSD[T]" stateSymmetry="1" stateNumber="1"
     value="-1054.150153416"/>
      <property name="energy" method="CCSD-T" stateSymmetry="1" stateNumber="1"
     value="-1054.15013073"/>
      <property name="total energy" method="CCSD(T)" principal="true" stateSymmetry="1"
     stateNumber="1" value="-1054.15012034761"/><!--


 **********************************************************************************************************************************
 DATASETS  * FILE   NREC   LENGTH (MB)   RECORD NAMES
              1      20       59.68       500      610      700      900      950      970     1000      129      960     1100   
                                          VAR    BASINP    GEOM    SYMINP    ZMAT    AOBASIS   BASIS     P2S    ABASIS      S 
                                         1400     1410     1200     1210     1080     1600     1650     1300     1700     1380   
                                           T        V       H0       H01     AOSYM     SMH    MOLCAS    ERIS     OPER     JKOP   

              2       3        0.38       700     1000     2100   
                                         GEOM     BASIS     RHF  

 PROGRAMS   *        TOTAL   CCSD(T)        HF       INT   CCSD(T)        HF       INT   CCSD(T)        HF       INT   CCSD(T)
 CPU TIMES  *       282.31      3.50      0.06      2.30      3.45      0.07      2.35      3.47      0.06      2.39      3.50
 REAL TIME  *       300.46 SEC
 DISK USED  *       250.05 MB      
 GA USED    *         0.00 MB       (max)       0.00 MB       (current)
 **********************************************************************************************************************************
   -->
   <time start="23:41:59" end="23:42:02" cpu="3.5" system="0.17" real="3.68"/>
   <storage units="megabyte" memory="65.84" sf="0.0" df="170.09" eaf="79.95" ga="0.0"/>
  </jobstep><!--
 SETTING E_VDW          =     -1054.15012035  AU                              
 SETTING E(42)          =     -1054.15012035  AU                              
                                                                                                                                                                                                                                                                

      DIST             E
    3.30000000   -1054.149796
    3.40243902   -1054.150159
    3.50487805   -1054.150371
    3.60731707   -1054.150485
    3.70975610   -1054.150536
    3.81219512   -1054.150547
    3.91463415   -1054.150535
    4.01707317   -1054.150509
    4.11951220   -1054.150477
    4.22195122   -1054.150442
    4.32439024   -1054.150408
    4.42682927   -1054.150375
    4.52926829   -1054.150345
    4.63170732   -1054.150317
    4.73414634   -1054.150293
    4.83658537   -1054.150272
    4.93902439   -1054.150253
    5.04146341   -1054.150237
    5.14390244   -1054.150222
    5.24634146   -1054.150210
    5.34878049   -1054.150199
    5.45121951   -1054.150189
    5.55365854   -1054.150180
    5.65609756   -1054.150173
    5.75853659   -1054.150166
    5.86097561   -1054.150160
    5.96341463   -1054.150155
    6.06585366   -1054.150150
    6.16829268   -1054.150146
    6.27073171   -1054.150143
    6.37317073   -1054.150140
    6.47560976   -1054.150137
    6.57804878   -1054.150134
    6.68048780   -1054.150132
    6.78292683   -1054.150130
    6.88536585   -1054.150128
    6.98780488   -1054.150126
    7.09024390   -1054.150125
    7.19268293   -1054.150124
    7.29512195   -1054.150122
    7.39756098   -1054.150121
    7.50000000   -1054.150120
                                                  
-->
<table xmlns="http://www.w3.org/1999/xhtml" id="table1">
<thead><tr><th>DIST</th><th>E</th></tr></thead><tbody>
<tr><td>   3.30000000</td><td>   -1054.149796</td></tr>
<tr><td>   3.40243902</td><td>   -1054.150159</td></tr>
<tr><td>   3.50487805</td><td>   -1054.150371</td></tr>
<tr><td>   3.60731707</td><td>   -1054.150485</td></tr>
<tr><td>   3.70975610</td><td>   -1054.150536</td></tr>
<tr><td>   3.81219512</td><td>   -1054.150547</td></tr>
<tr><td>   3.91463415</td><td>   -1054.150535</td></tr>
<tr><td>   4.01707317</td><td>   -1054.150509</td></tr>
<tr><td>   4.11951220</td><td>   -1054.150477</td></tr>
<tr><td>   4.22195122</td><td>   -1054.150442</td></tr>
<tr><td>   4.32439024</td><td>   -1054.150408</td></tr>
<tr><td>   4.42682927</td><td>   -1054.150375</td></tr>
<tr><td>   4.52926829</td><td>   -1054.150345</td></tr>
<tr><td>   4.63170732</td><td>   -1054.150317</td></tr>
<tr><td>   4.73414634</td><td>   -1054.150293</td></tr>
<tr><td>   4.83658537</td><td>   -1054.150272</td></tr>
<tr><td>   4.93902439</td><td>   -1054.150253</td></tr>
<tr><td>   5.04146341</td><td>   -1054.150237</td></tr>
<tr><td>   5.14390244</td><td>   -1054.150222</td></tr>
<tr><td>   5.24634146</td><td>   -1054.150210</td></tr>
<tr><td>   5.34878049</td><td>   -1054.150199</td></tr>
<tr><td>   5.45121951</td><td>   -1054.150189</td></tr>
<tr><td>   5.55365854</td><td>   -1054.150180</td></tr>
<tr><td>   5.65609756</td><td>   -1054.150173</td></tr>
<tr><td>   5.75853659</td><td>   -1054.150166</td></tr>
<tr><td>   5.86097561</td><td>   -1054.150160</td></tr>
<tr><td>   5.96341463</td><td>   -1054.150155</td></tr>
<tr><td>   6.06585366</td><td>   -1054.150150</td></tr>
<tr><td>   6.16829268</td><td>   -1054.150146</td></tr>
<tr><td>   6.27073171</td><td>   -1054.150143</td></tr>
<tr><td>   6.37317073</td><td>   -1054.150140</td></tr>
<tr><td>   6.47560976</td><td>   -1054.150137</td></tr>
<tr><td>   6.57804878</td><td>   -1054.150134</td></tr>
<tr><td>   6.68048780</td><td>   -1054.150132</td></tr>
<tr><td>   6.78292683</td><td>   -1054.150130</td></tr>
<tr><td>   6.88536585</td><td>   -1054.150128</td></tr>
<tr><td>   6.98780488</td><td>   -1054.150126</td></tr>
<tr><td>   7.09024390</td><td>   -1054.150125</td></tr>
<tr><td>   7.19268293</td><td>   -1054.150124</td></tr>
<tr><td>   7.29512195</td><td>   -1054.150122</td></tr>
<tr><td>   7.39756098</td><td>   -1054.150121</td></tr>
<tr><td>   7.50000000</td><td>   -1054.150120</td></tr>
</tbody></table>
<!--

        CCSD(T)         HF-SCF          CCSD(T)         HF-SCF          CCSD(T)         HF-SCF          CCSD(T)         HF-SCF  
  -1054.15012035  -1053.63360990  -1054.15012129  -1053.63360994  -1054.15012235  -1053.63360999  -1054.15012352  -1053.63361004
 **********************************************************************************************************************************
 Variable memory released
  --><stm:metadataList>
   <stm:metadata name="dc:date" content="2017-06-02T23:42:02+03:00"/>
   <stm:metadata name="dc:creator" content="student17"/>
   <stm:metadata name="dc:title" content="Ar-Ar"/>
   <stm:metadata name="cmlm:insilico" content="Molpro"/>
  </stm:metadataList><!--
  --><platform>
   <version major="2010" minor="1" integer_bits="64" parallelism="mpp">
    2010.1
    <date year="2017" month="6" day="2" hour="23" minute="37" second="2">
     2017-06-02T23:37:02
    </date>
   </version>
   <licence id="plat"/>
   <parallel processes="1" nodes="1" all_processes="1" openmp="1"/>
   <machine hostname="debserv" architecture="x86_64">
    Linux-3.2.0-4-amd64/debserv(x86_64) 64 bit mpp version
    <sysinfo name="cpu MHz" content="1200.000"/>
    <sysinfo name="MemTotal" content="66055752 kB"/>
    <sysinfo name="vendor_id" content="GenuineIntel"/>
    <sysinfo name="cpu family" content="6"/>
    <sysinfo name="model name" content="Intel(R) Core(TM) i7-4930K CPU @ 3.40GHz"/>
    <sysinfo name="flags"
      content="fpu vme de pse tsc msr pae mce cx8 apic sep mtrr pge mca cmov pat pse36 clflush dts acpi mmx fxsr sse sse2 ss ht tm pbe syscall nx pdpe1gb rdtscp lm constant_tsc arch_perfmon pebs bts rep_good nopl xtopology nonstop_tsc aperfmperf pni pclmulqdq dtes64 monitor ds_cpl vmx est tm2 ssse3 cx16 xtpr pdcm pcid dca sse4_1 sse4_2 x2apic popcnt tsc_deadline_timer aes xsave avx f16c rdrand lahf_lm arat epb xsaveopt pln pts dtherm tpr_shadow vnmi flexpriority ept vpid fsgsbase smep erms"/>
    <sysinfo name="MemTotal" content="66055752 kB"/>
    <sysinfo name="cache size" content="12288 KB"/>
    <sysinfo name="ncpu" content="6"/>
   </machine>
  </platform><!--
  -->
  <input>
   <p> ***,Ar-Ar </p>
   <p> basis = aug-cc-pvqz                                                             ! basis set </p>
   <p> geometry = {ar; ar, ar, r} </p>
   <p> r_min = 3.30, angstrem </p>
   <p> r_max = 7.50, angstrem </p>
   <p> n = 42 </p>
   <p> do i=1, n </p>
   <p> r = r_min + (r_max - r_min)/(n-1) * (i-1) </p>
   <p> dist(i) = r </p>
   <p>                                                                                 ! hartree fock </p>
   <p> hf </p>
   <p> ccsd(t) </p>
   <p> e_vdw = energy </p>
   <p>                                                                                 ! atomic energies? </p>
   <p>                                                                                 ! dummy ar </p>
   <p>                                                                                 ! hf </p>
   <p>                                                                                 ! ccsd(t) </p>
   <p>                                                                                 ! e_atomic = energy </p>
   <p> e(i) = e_vdw </p>
   <p> enddo </p>
   <p> table dist, e </p>
   <p> save ar2.tab, new </p>
  </input>
  <!--
 --></job><!--
--></molpro>
