
 Primary working directories    : /mnt/SSD/student17
 Secondary working directories  : /mnt/SSD/student17
 Wavefunction directory         : /home/student17/wfu/
 Main file repository           : /mnt/SSD/student17/

 ARCHNAME  : Linux/x86_64
 FC        : /usr/bin/gfortran
 FCVERSION : 4.7.2
 BLASLIB   : -L/opt/intel/mkl/lib/intel64 -lmkl_intel_ilp64 -lmkl_sequential -lmkl_core
 id        : plat

 Nodes     nprocs
 debserv      1
 ga_uses_ma=false, calling ma_init with nominal heap.
 GA-space will be limited to   8.0 MW (determined by -G option)

 Using customized tuning parameters: mindgm=12; mindgv=24; mindgc=8; mindgr=1; noblas=0; mincuda=1000; minvec=7
 default implementation of scratch files=df  

 ***,Ar-Ar
 
                                                                                 ! basis = aug-cc-pvqz ! basis set
 basis = avtz
 
 geometry = {ar; ar, ar, r}
 r_min = 3.30, angstrem
 r_max = 7.50, angstrem
 n = 43
 
 do i=1, n
 r = r_min + (r_max - r_min)/(n-1) * (i-1)
 dist(i) = r
 
                                                                                 ! hartree fock
 hf
 ccsd(t)
 e_vdw = energy
 
                                                                                 ! atomic energies?
                                                                                 ! dummy ar
                                                                                 ! hf
                                                                                 ! ccsd(t)
                                                                                 ! e_atomic = energy
 
 e(i) = e_vdw
 enddo
 
 table dist, e
 save ar2.tab, new

 Variables initialized (661), CPU time= 0.00 sec
 Commands  initialized (460), CPU time= 0.01 sec, 486 directives.
 Default parameters read. Elapsed time= 0.01 sec

 Checking input...
 Passed
1


                                         ***  PROGRAM SYSTEM MOLPRO  ***
                         Copyright, University College Cardiff Consultants Limited, 2008

                                    Version 2010.1 linked 30 Ноя 2013 12:52


 **********************************************************************************************************************************
 LABEL *   Ar-Ar                                                                         
 Linux-3.2.0-4-amd64/debserv(x86_64) 64 bit mpp version                                  DATE: 03-Jun-17          TIME: 00:07:40  
 **********************************************************************************************************************************

 SHA1:             fd122acbd35ef3619fab5330ac0556b6c1fa4be2
 **********************************************************************************************************************************

 Variable memory set to    8000000 words,  buffer space   230000 words

 SETTING BASIS          =    AVTZ
 SETTING R_MIN          =         3.30000000  ANGSTREM                        
 SETTING R_MAX          =         7.50000000  ANGSTREM                        
 SETTING N              =        43.00000000                                  

 DO I                   =         1.00000000   
 SETTING R              =         3.30000000  ANGSTREM                        
 SETTING DIST(1)        =         3.30000000  ANGSTREM                        


 Recomputing integrals since basis changed


 Using spherical harmonics

 Library entry AR     S aug-cc-pVTZ          selected for orbital group  1
 Library entry AR     P aug-cc-pVTZ          selected for orbital group  1
 Library entry AR     D aug-cc-pVTZ          selected for orbital group  1
 Library entry AR     F aug-cc-pVTZ          selected for orbital group  1

1PROGRAM * SEWARD (Integral evaluation for generally contracted gaussian basis sets)     Author: Roland Lindh, 1990

 Geometry written to block  1 of record 700

 Orientation using atomic masses  
 Molecule type: Linear
 Symmetry elements: X,Y,Z
 Rotational constants:       2.3234015      2.3234015      0.0000000 GHz  (calculated with average atomic masses)

 Point group  D2h 



 ATOMIC COORDINATES

 NR  ATOM    CHARGE       X              Y              Z

   1  AR     18.00    0.000000000    0.000000000   -3.118048117
   2  AR     18.00    0.000000000    0.000000000    3.118048117

 NUCLEAR CHARGE:                   36
 NUMBER OF PRIMITIVE AOS:         168
 NUMBER OF SYMMETRY AOS:          150
 NUMBER OF CONTRACTIONS:          100   (  21Ag  +  12B3u +  12B2u +   5B1g +  21B1u +  12B2g +  12B3g +   5Au  )
 NUMBER OF CORE ORBITALS:          10   (   3Ag  +   1B3u +   1B2u +   0B1g +   3B1u +   1B2g +   1B3g +   0Au  )
 NUMBER OF VALENCE ORBITALS:        8   (   2Ag  +   1B3u +   1B2u +   0B1g +   2B1u +   1B2g +   1B3g +   0Au  )


 NUCLEAR REPULSION ENERGY   51.95558052

 EXTRA SYMMETRY OF AOS IN SYMMETRY 1:   1 1 1 1 1 1 1 1 1 1   1 1 2 1 2 1 2 1 2 1   2
 EXTRA SYMMETRY OF AOS IN SYMMETRY 2:   1 1 1 1 1 1 1 1 1 2   1 2
 EXTRA SYMMETRY OF AOS IN SYMMETRY 3:   1 1 1 1 1 1 1 1 1 2   1 2
 EXTRA SYMMETRY OF AOS IN SYMMETRY 5:   1 1 1 1 1 1 1 1 1 1   1 1 2 1 2 1 2 1 2 1   2
 EXTRA SYMMETRY OF AOS IN SYMMETRY 6:   1 1 1 1 1 1 1 1 1 2   1 2
 EXTRA SYMMETRY OF AOS IN SYMMETRY 7:   1 1 1 1 1 1 1 1 1 2   1 2

 Eigenvalues of metric

         1 0.619E-02 0.214E-01 0.873E-01 0.141E+00 0.174E+00 0.245E+00 0.289E+00 0.311E+00
         2 0.218E-01 0.181E+00 0.287E+00 0.293E+00 0.303E+00 0.819E+00 0.884E+00 0.144E+01
         3 0.218E-01 0.181E+00 0.287E+00 0.293E+00 0.303E+00 0.819E+00 0.884E+00 0.144E+01
         4 0.174E+00 0.289E+00 0.801E+00 0.172E+01 0.206E+01
         5 0.490E-02 0.130E-01 0.271E-01 0.111E+00 0.162E+00 0.173E+00 0.254E+00 0.284E+00
         6 0.205E-01 0.123E+00 0.225E+00 0.275E+00 0.287E+00 0.601E+00 0.743E+00 0.126E+01
         7 0.205E-01 0.123E+00 0.225E+00 0.275E+00 0.287E+00 0.601E+00 0.743E+00 0.126E+01
         8 0.162E+00 0.284E+00 0.772E+00 0.171E+01 0.203E+01


 Contracted 2-electron integrals neglected if value below      1.0D-11
 AO integral compression algorithm  1   Integral accuracy      1.0D-11

     12.845 MB (compressed) written to integral file ( 47.0%)

     Node minimum: 12.845 MB, node maximum: 12.845 MB


 NUMBER OF SORTED TWO-ELECTRON INTEGRALS:    1699305.     BUFFER LENGTH:  32768
 NUMBER OF SEGMENTS:   1  SEGMENT LENGTH:    1699305      RECORD LENGTH: 524288

 Memory used in sort:       2.26 MW

 SORT1 READ     3485072. AND WROTE     1404266. INTEGRALS IN      5 RECORDS. CPU TIME:     0.07 SEC, REAL TIME:     0.07 SEC
 SORT2 READ     1404266. AND WROTE     1699305. INTEGRALS IN     49 RECORDS. CPU TIME:     0.09 SEC, REAL TIME:     0.11 SEC

 FILE SIZES:   FILE 1:     9.2 MBYTE,  FILE 4:    21.0 MBYTE,   TOTAL:     30.2 MBYTE

 OPERATOR DM      FOR CENTER  0  COORDINATES:    0.000000    0.000000    0.000000


 **********************************************************************************************************************************
 DATASETS  * FILE   NREC   LENGTH (MB)   RECORD NAMES
              1      19        9.25       500      610      700      900      950      970     1000      129      960     1100   
                                          VAR    BASINP    GEOM    SYMINP    ZMAT    AOBASIS   BASIS     P2S    ABASIS      S 
                                         1400     1410     1200     1210     1080     1600     1650     1300     1700   
                                           T        V       H0       H01     AOSYM     SMH    MOLCAS    ERIS     OPER   

 PROGRAMS   *        TOTAL       INT
 CPU TIMES  *         0.70      0.66
 REAL TIME  *         0.77 SEC
 DISK USED  *        43.57 MB      
 GA USED    *         0.00 MB       (max)       0.00 MB       (current)
 **********************************************************************************************************************************

1PROGRAM * RHF-SCF (CLOSED SHELL)       Authors: W. Meyer, H.-J. Werner


 NUMBER OF ELECTRONS:      18+   18-
 CONVERGENCE THRESHOLDS:    1.00E-05 (Density)    1.00E-07 (Energy)
 MAX. NUMBER OF ITERATIONS:       60
 INTERPOLATION TYPE:            DIIS
 INTERPOLATION STEPS:              2 (START)      1 (STEP)
 LEVEL SHIFTS:                  0.00 (CLOSED)  0.00 (OPEN) 



 Orbital guess generated from atomic densities. Full valence occupancy:    5   2   2   0   5   2   2   0


 Molecular orbital dump at record        2100.2

 Initial alpha occupancy:   5   2   2   0   5   2   2   0
 Initial beta  occupancy:   5   2   2   0   5   2   2   0
 Wave function symmetry:    1

 ITERATION    DDIFF          GRAD             ENERGY        2-EL.EN.            DIPOLE MOMENTS         DIIS
    1      0.000D+00      0.000D+00     -1053.62448605    909.623142    0.00000    0.00000    0.00000    0
    2      0.000D+00      0.245D-03     -1053.62451474    909.592210    0.00000    0.00000    0.00000    1
    3      0.576D-03      0.605D-04     -1053.62451656    909.591130    0.00000    0.00000    0.00000    2
    4      0.167D-03      0.122D-04     -1053.62451660    909.588937    0.00000    0.00000    0.00000    3
    5      0.163D-04      0.286D-05     -1053.62451660    909.588845    0.00000    0.00000    0.00000    4
    6      0.625D-05      0.400D-06     -1053.62451660    909.588911    0.00000    0.00000    0.00000    0

 Final occupancy:   5   2   2   0   5   2   2   0

 !RHF STATE 1.1 Energy              -1053.624516603565
 Nuclear energy                        51.95558052
 One-electron energy                -1560.37455268
 Two-electron energy                  454.79445555
 Virial quotient                       -1.00001074
 !RHF STATE 1.1 Dipole moment           0.00000000     0.00000000     0.00000000
 Dipole moment /Debye                   0.00000000     0.00000000     0.00000000

 Orbital energies:

         1.1          2.1          3.1          4.1          5.1          6.1          7.1
   -118.610742   -12.322007    -9.570968    -1.280099    -0.608660     0.132657     0.162706

         1.2          2.2          3.2          4.2
     -9.570967    -0.593781     0.120779     0.364516

         1.3          2.3          3.3          4.3
     -9.570967    -0.593781     0.120779     0.364516

         1.4          2.4
      0.393225     1.047798

         1.5          2.5          3.5          4.5          5.5          6.5          7.5
   -118.610742   -12.322009    -9.570970    -1.275092    -0.573983     0.107671     0.266096

         1.6          2.6          3.6          4.6
     -9.570968    -0.588059     0.154642     0.497395

         1.7          2.7          3.7          4.7
     -9.570968    -0.588059     0.154642     0.497395

         1.8          2.8
      0.425225     1.077944


 **********************************************************************************************************************************
 DATASETS  * FILE   NREC   LENGTH (MB)   RECORD NAMES
              1      19        9.25       500      610      700      900      950      970     1000      129      960     1100   
                                          VAR    BASINP    GEOM    SYMINP    ZMAT    AOBASIS   BASIS     P2S    ABASIS      S 
                                         1400     1410     1200     1210     1080     1600     1650     1300     1700   
                                           T        V       H0       H01     AOSYM     SMH    MOLCAS    ERIS     OPER   

              2       3        0.31       700     1000     2100   
                                         GEOM     BASIS     RHF  

 PROGRAMS   *        TOTAL        HF       INT
 CPU TIMES  *         0.72      0.02      0.66
 REAL TIME  *         0.80 SEC
 DISK USED  *        43.57 MB      
 GA USED    *         0.00 MB       (max)       0.00 MB       (current)
 **********************************************************************************************************************************


1PROGRAM * CCSD (Closed-shell coupled cluster)     Authors: C. Hampel, H.-J. Werner, 1991, M. Deegan, P.J. Knowles, 1992


 Convergence thresholds:  THRVAR = 1.00D-08  THRDEN = 1.00D-06

 CCSD(T)     terms to be evaluated (factor= 1.000)


 Number of core orbitals:          10 (   3   1   1   0   3   1   1   0 )
 Number of closed-shell orbitals:   8 (   2   1   1   0   2   1   1   0 )
 Number of external orbitals:      82 (  16  10  10   5  16  10  10   5 )

 Molecular orbitals read from record     2100.2  Type=RHF/CANONICAL (state 1.1)

 Number of N-1 electron functions:               8
 Number of N-2 electron functions:              36
 Number of singly external CSFs:               104
 Number of doubly external CSFs:             28192
 Total number of CSFs:                       28297

 Length of J-op  integral file:               0.00 MB
 Length of K-op  integral file:               0.14 MB
 Length of 3-ext integral record:             0.00 MB

 Memory could be reduced to 1.14 Mwords without degradation in triples

 Integral transformation finished. Total CPU:   0.02 sec, npass=  1  Memory used:   0.42 MW

 Reference energy:                  -1053.62451660

 MP2 singlet pair energy:              -0.26420243
 MP2 triplet pair energy:              -0.15962269
 MP2 correlation energy:               -0.42382512
 MP2 total energy:                  -1054.04834172

 SCS-MP2 correlation energy:           -0.41636370   (PS=  1.200000  PT=  0.333333)
 SCS-MP2 total energy:              -1054.04088030

 ITER.      SQ.NORM     CORR.ENERGY   TOTAL ENERGY   ENERGY CHANGE        DEN1      VAR(S)    VAR(P)  DIIS     TIME
   1      1.14041068    -0.45671317 -1054.08122977    -0.03288806    -0.02566320  0.95D-04  0.13D-02  1  1     0.06
   2      1.14602023    -0.45768472 -1054.08220132    -0.00097154    -0.00781369  0.29D-05  0.34D-04  2  2     0.09
   3      1.14648419    -0.45767638 -1054.08219299     0.00000833    -0.00033591  0.51D-06  0.17D-05  3  3     0.12
   4      1.14659781    -0.45768561 -1054.08220221    -0.00000922    -0.00003995  0.24D-07  0.42D-07  4  4     0.15
   5      1.14661038    -0.45768493 -1054.08220153     0.00000068    -0.00000592  0.24D-08  0.19D-08  5  5     0.18
   6      1.14661229    -0.45768447 -1054.08220107     0.00000046    -0.00000080  0.17D-09  0.14D-09  6  6     0.22

 Norm of t1 vector:      0.01220593      S-energy:    -0.00000004      T1 diagnostic:  0.00215772
                                                                       D1 diagnostic:  0.00375900


 Total CPU time for triples:      0.29 sec


 RESULTS
 =======

  Reference energy                  -1053.624516603566
  CCSD singlet pair energy             -0.302970529735
  CCSD triplet pair energy             -0.154713899244
  CCSD correlation energy              -0.457684470841

  Triples (T) contribution             -0.014909520454
  Total correlation energy             -0.472593991295

  CCSD total energy                 -1054.082201074407
  CCSD[T] energy                    -1054.097137651460
  CCSD-T energy                     -1054.097115352390
 !CCSD(T) total energy              -1054.097110594861

 Timing summary (sec):

 STEP                 CPU(USER)    SYS     CPU(TOT)    WALL
 Transformation          0.02      0.00      0.02      0.03
 CCSD iterations         0.20      0.03      0.23      0.22
 Triples                 0.29      0.01      0.30      0.30

 Program statistics:

 Available memory in ccsd:                 7999644
 Min. memory needed in ccsd:                100355
 Max. memory used in ccsd:                  123091
 Max. memory used in cckext:                150987 ( 6 integral passes)



 **********************************************************************************************************************************
 DATASETS  * FILE   NREC   LENGTH (MB)   RECORD NAMES
              1      20       12.31       500      610      700      900      950      970     1000      129      960     1100   
                                          VAR    BASINP    GEOM    SYMINP    ZMAT    AOBASIS   BASIS     P2S    ABASIS      S 
                                         1400     1410     1200     1210     1080     1600     1650     1300     1700     1380   
                                           T        V       H0       H01     AOSYM     SMH    MOLCAS    ERIS     OPER     JKOP   

              2       3        0.31       700     1000     2100   
                                         GEOM     BASIS     RHF  

 PROGRAMS   *        TOTAL   CCSD(T)        HF       INT
 CPU TIMES  *         1.24      0.52      0.02      0.66
 REAL TIME  *         1.37 SEC
 DISK USED  *        43.57 MB      
 GA USED    *         0.00 MB       (max)       0.00 MB       (current)
 **********************************************************************************************************************************
 SETTING E_VDW          =     -1054.09711059  AU                              
 SETTING E(1)           =     -1054.09711059  AU                              

 DO I                   =         2.00000000   
 SETTING R              =         3.40000000  ANGSTREM                        
 SETTING DIST(2)        =         3.40000000  ANGSTREM                        


 Recomputing integrals since geometry changed

1PROGRAM * SEWARD (Integral evaluation for generally contracted gaussian basis sets)     Author: Roland Lindh, 1990

 Geometry written to block  1 of record 700

 Orientation using atomic masses  
 Molecule type: Linear
 Symmetry elements: X,Y,Z
 Rotational constants:       2.1887407      2.1887407      0.0000000 GHz  (calculated with average atomic masses)

 Point group  D2h 



 ATOMIC COORDINATES

 NR  ATOM    CHARGE       X              Y              Z

   1  AR     18.00    0.000000000    0.000000000   -3.212534423
   2  AR     18.00    0.000000000    0.000000000    3.212534423

 NUCLEAR CHARGE:                   36
 NUMBER OF PRIMITIVE AOS:         168
 NUMBER OF SYMMETRY AOS:          150
 NUMBER OF CONTRACTIONS:          100   (  21Ag  +  12B3u +  12B2u +   5B1g +  21B1u +  12B2g +  12B3g +   5Au  )
 NUMBER OF CORE ORBITALS:          10   (   3Ag  +   1B3u +   1B2u +   0B1g +   3B1u +   1B2g +   1B3g +   0Au  )
 NUMBER OF VALENCE ORBITALS:        8   (   2Ag  +   1B3u +   1B2u +   0B1g +   2B1u +   1B2g +   1B3g +   0Au  )


 NUCLEAR REPULSION ENERGY   50.42747521

 EXTRA SYMMETRY OF AOS IN SYMMETRY 1:   1 1 1 1 1 1 1 1 1 1   1 1 2 1 2 1 2 1 2 1   2
 EXTRA SYMMETRY OF AOS IN SYMMETRY 2:   1 1 1 1 1 1 1 1 1 2   1 2
 EXTRA SYMMETRY OF AOS IN SYMMETRY 3:   1 1 1 1 1 1 1 1 1 2   1 2
 EXTRA SYMMETRY OF AOS IN SYMMETRY 5:   1 1 1 1 1 1 1 1 1 1   1 1 2 1 2 1 2 1 2 1   2
 EXTRA SYMMETRY OF AOS IN SYMMETRY 6:   1 1 1 1 1 1 1 1 1 2   1 2
 EXTRA SYMMETRY OF AOS IN SYMMETRY 7:   1 1 1 1 1 1 1 1 1 2   1 2

 Eigenvalues of metric

         1 0.620E-02 0.214E-01 0.883E-01 0.147E+00 0.173E+00 0.245E+00 0.288E+00 0.307E+00
         2 0.217E-01 0.182E+00 0.287E+00 0.293E+00 0.300E+00 0.814E+00 0.882E+00 0.144E+01
         3 0.217E-01 0.182E+00 0.287E+00 0.293E+00 0.300E+00 0.814E+00 0.882E+00 0.144E+01
         4 0.173E+00 0.288E+00 0.798E+00 0.172E+01 0.206E+01
         5 0.496E-02 0.147E-01 0.287E-01 0.114E+00 0.163E+00 0.175E+00 0.263E+00 0.285E+00
         6 0.206E-01 0.128E+00 0.228E+00 0.279E+00 0.287E+00 0.615E+00 0.749E+00 0.126E+01
         7 0.206E-01 0.128E+00 0.228E+00 0.279E+00 0.287E+00 0.615E+00 0.749E+00 0.126E+01
         8 0.163E+00 0.285E+00 0.774E+00 0.171E+01 0.203E+01


 Contracted 2-electron integrals neglected if value below      1.0D-11
 AO integral compression algorithm  1   Integral accuracy      1.0D-11

     12.845 MB (compressed) written to integral file ( 46.8%)

     Node minimum: 12.845 MB, node maximum: 12.845 MB


 NUMBER OF SORTED TWO-ELECTRON INTEGRALS:    1699305.     BUFFER LENGTH:  32768
 NUMBER OF SEGMENTS:   1  SEGMENT LENGTH:    1699305      RECORD LENGTH: 524288

 Memory used in sort:       2.26 MW

 SORT1 READ     3485072. AND WROTE     1404059. INTEGRALS IN      5 RECORDS. CPU TIME:     0.05 SEC, REAL TIME:     0.07 SEC
 SORT2 READ     1404059. AND WROTE     1699305. INTEGRALS IN     49 RECORDS. CPU TIME:     0.10 SEC, REAL TIME:     0.10 SEC

 FILE SIZES:   FILE 1:     9.2 MBYTE,  FILE 4:    21.0 MBYTE,   TOTAL:     30.2 MBYTE

 OPERATOR DM      FOR CENTER  0  COORDINATES:    0.000000    0.000000    0.000000


 **********************************************************************************************************************************
 DATASETS  * FILE   NREC   LENGTH (MB)   RECORD NAMES
              1      19        9.24       500      610      700      900      950      970     1000      129      960     1100   
                                          VAR    BASINP    GEOM    SYMINP    ZMAT    AOBASIS   BASIS     P2S    ABASIS      S 
                                         1400     1410     1200     1210     1080     1600     1650     1300     1700   
                                           T        V       H0       H01     AOSYM     SMH    MOLCAS    ERIS     OPER   

              2       3        0.31       700     1000     2100   
                                         GEOM     BASIS     RHF  

 PROGRAMS   *        TOTAL       INT   CCSD(T)        HF       INT
 CPU TIMES  *         1.89      0.65      0.52      0.02      0.66
 REAL TIME  *         2.05 SEC
 DISK USED  *        43.63 MB      
 GA USED    *         0.00 MB       (max)       0.00 MB       (current)
 **********************************************************************************************************************************

1PROGRAM * RHF-SCF (CLOSED SHELL)       Authors: W. Meyer, H.-J. Werner


 NUMBER OF ELECTRONS:      18+   18-
 CONVERGENCE THRESHOLDS:    1.00E-05 (Density)    1.00E-07 (Energy)
 MAX. NUMBER OF ITERATIONS:       60
 INTERPOLATION TYPE:            DIIS
 INTERPOLATION STEPS:              2 (START)      1 (STEP)
 LEVEL SHIFTS:                  0.00 (CLOSED)  0.00 (OPEN) 



 Molecular orbitals read from record     2100.2  Type=RHF/CANONICAL (state 1.1)

 Molecular orbital dump at record        2100.2

 ITERATION    DDIFF          GRAD             ENERGY        2-EL.EN.            DIPOLE MOMENTS         DIIS
    1      0.000D+00      0.000D+00     -1053.62518286    906.504746    0.00000    0.00000    0.00000    0
    2      0.000D+00      0.197D-03     -1053.62519138    906.526561    0.00000    0.00000    0.00000    1
    3      0.314D-03      0.256D-04     -1053.62519157    906.519227    0.00000    0.00000    0.00000    2
    4      0.568D-04      0.598D-05     -1053.62519158    906.521148    0.00000    0.00000    0.00000    3
    5      0.624D-05      0.708D-06     -1053.62519158    906.521027    0.00000    0.00000    0.00000    0

 Final occupancy:   5   2   2   0   5   2   2   0

 !RHF STATE 1.1 Energy              -1053.625191577801
 Nuclear energy                        50.42747521
 One-electron energy                -1557.31318007
 Two-electron energy                  453.26051329
 Virial quotient                       -1.00001777
 !RHF STATE 1.1 Dipole moment           0.00000000     0.00000000     0.00000000
 Dipole moment /Debye                   0.00000000     0.00000000     0.00000000

 Orbital energies:

         1.1          2.1          3.1          4.1          5.1          6.1          7.1
   -118.611063   -12.322278    -9.571241    -1.279564    -0.605840     0.132589     0.161096

         1.2          2.2          3.2          4.2
     -9.571242    -0.593312     0.120321     0.365544

         1.3          2.3          3.3          4.3
     -9.571242    -0.593312     0.120321     0.365544

         1.4          2.4
      0.395206     1.048735

         1.5          2.5          3.5          4.5          5.5          6.5          7.5
   -118.611064   -12.322280    -9.571243    -1.275699    -0.576827     0.108707     0.262804

         1.6          2.6          3.6          4.6
     -9.571243    -0.588692     0.154222     0.490061

         1.7          2.7          3.7          4.7
     -9.571243    -0.588692     0.154222     0.490061

         1.8          2.8
      0.423066     1.076574


 **********************************************************************************************************************************
 DATASETS  * FILE   NREC   LENGTH (MB)   RECORD NAMES
              1      19        9.24       500      610      700      900      950      970     1000      129      960     1100   
                                          VAR    BASINP    GEOM    SYMINP    ZMAT    AOBASIS   BASIS     P2S    ABASIS      S 
                                         1400     1410     1200     1210     1080     1600     1650     1300     1700   
                                           T        V       H0       H01     AOSYM     SMH    MOLCAS    ERIS     OPER   

              2       3        0.31       700     1000     2100   
                                         GEOM     BASIS     RHF  

 PROGRAMS   *        TOTAL        HF       INT   CCSD(T)        HF       INT
 CPU TIMES  *         1.90      0.01      0.65      0.52      0.02      0.66
 REAL TIME  *         2.07 SEC
 DISK USED  *        43.63 MB      
 GA USED    *         0.00 MB       (max)       0.00 MB       (current)
 **********************************************************************************************************************************


1PROGRAM * CCSD (Closed-shell coupled cluster)     Authors: C. Hampel, H.-J. Werner, 1991, M. Deegan, P.J. Knowles, 1992


 Convergence thresholds:  THRVAR = 1.00D-08  THRDEN = 1.00D-06

 CCSD(T)     terms to be evaluated (factor= 1.000)


 Number of core orbitals:          10 (   3   1   1   0   3   1   1   0 )
 Number of closed-shell orbitals:   8 (   2   1   1   0   2   1   1   0 )
 Number of external orbitals:      82 (  16  10  10   5  16  10  10   5 )

 Molecular orbitals read from record     2100.2  Type=RHF/CANONICAL (state 1.1)

 Number of N-1 electron functions:               8
 Number of N-2 electron functions:              36
 Number of singly external CSFs:               104
 Number of doubly external CSFs:             28192
 Total number of CSFs:                       28297

 Length of J-op  integral file:               0.00 MB
 Length of K-op  integral file:               0.14 MB
 Length of 3-ext integral record:             0.00 MB

 Memory could be reduced to 1.14 Mwords without degradation in triples

 Integral transformation finished. Total CPU:   0.01 sec, npass=  1  Memory used:   0.42 MW

 Reference energy:                  -1053.62519158

 MP2 singlet pair energy:              -0.26411031
 MP2 triplet pair energy:              -0.15940021
 MP2 correlation energy:               -0.42351052
 MP2 total energy:                  -1054.04870210

 SCS-MP2 correlation energy:           -0.41611472   (PS=  1.200000  PT=  0.333333)
 SCS-MP2 total energy:              -1054.04130630

 ITER.      SQ.NORM     CORR.ENERGY   TOTAL ENERGY   ENERGY CHANGE        DEN1      VAR(S)    VAR(P)  DIIS     TIME
   1      1.14036893    -0.45646406 -1054.08165564    -0.03295354    -0.02572633  0.93D-04  0.13D-02  1  1     0.05
   2      1.14597988    -0.45743501 -1054.08262658    -0.00097094    -0.00781830  0.28D-05  0.34D-04  2  2     0.07
   3      1.14644197    -0.45742722 -1054.08261880     0.00000779    -0.00033416  0.49D-06  0.17D-05  3  3     0.10
   4      1.14655459    -0.45743656 -1054.08262813    -0.00000934    -0.00003945  0.24D-07  0.41D-07  4  4     0.13
   5      1.14656707    -0.45743583 -1054.08262741     0.00000073    -0.00000599  0.23D-08  0.19D-08  5  5     0.15
   6      1.14656891    -0.45743539 -1054.08262696     0.00000044    -0.00000074  0.15D-09  0.13D-09  6  6     0.19

 Norm of t1 vector:      0.01205475      S-energy:    -0.00000007      T1 diagnostic:  0.00213100
                                                                       D1 diagnostic:  0.00367400

 Total CPU time for triples:      0.29 sec


 RESULTS
 =======

  Reference energy                  -1053.625191577802
  CCSD singlet pair energy             -0.302910066779
  CCSD triplet pair energy             -0.154525250796
  CCSD correlation energy              -0.457435385690

  Triples (T) contribution             -0.014877195099
  Total correlation energy             -0.472312580789

  CCSD total energy                 -1054.082626963492
  CCSD[T] energy                    -1054.097531125780
  CCSD-T energy                     -1054.097509077804
 !CCSD(T) total energy              -1054.097504158591

 Timing summary (sec):

 STEP                 CPU(USER)    SYS     CPU(TOT)    WALL
 Transformation          0.01      0.02      0.03      0.03
 CCSD iterations         0.18      0.04      0.22      0.22
 Triples                 0.29      0.01      0.30      0.31

 Program statistics:

 Available memory in ccsd:                 7999644
 Min. memory needed in ccsd:                100355
 Max. memory used in ccsd:                  123091
 Max. memory used in cckext:                150987 ( 6 integral passes)



 **********************************************************************************************************************************
 DATASETS  * FILE   NREC   LENGTH (MB)   RECORD NAMES
              1      20       12.30       500      610      700      900      950      970     1000      129      960     1100   
                                          VAR    BASINP    GEOM    SYMINP    ZMAT    AOBASIS   BASIS     P2S    ABASIS      S 
                                         1400     1410     1200     1210     1080     1600     1650     1300     1700     1380   
                                           T        V       H0       H01     AOSYM     SMH    MOLCAS    ERIS     OPER     JKOP   

              2       3        0.31       700     1000     2100   
                                         GEOM     BASIS     RHF  

 PROGRAMS   *        TOTAL   CCSD(T)        HF       INT   CCSD(T)        HF       INT
 CPU TIMES  *         2.40      0.50      0.01      0.65      0.52      0.02      0.66
 REAL TIME  *         2.64 SEC
 DISK USED  *        43.63 MB      
 GA USED    *         0.00 MB       (max)       0.00 MB       (current)
 **********************************************************************************************************************************
 SETTING E_VDW          =     -1054.09750416  AU                              
 SETTING E(2)           =     -1054.09750416  AU                              

 DO I                   =         3.00000000   
 SETTING R              =         3.50000000  ANGSTREM                        
 SETTING DIST(3)        =         3.50000000  ANGSTREM                        


 Recomputing integrals since geometry changed

1PROGRAM * SEWARD (Integral evaluation for generally contracted gaussian basis sets)     Author: Roland Lindh, 1990

 Geometry written to block  1 of record 700

 Orientation using atomic masses  
 Molecule type: Linear
 Symmetry elements: X,Y,Z
 Rotational constants:       2.0654565      2.0654565      0.0000000 GHz  (calculated with average atomic masses)

 Point group  D2h 



 ATOMIC COORDINATES

 NR  ATOM    CHARGE       X              Y              Z

   1  AR     18.00    0.000000000    0.000000000   -3.307020730
   2  AR     18.00    0.000000000    0.000000000    3.307020730

 NUCLEAR CHARGE:                   36
 NUMBER OF PRIMITIVE AOS:         168
 NUMBER OF SYMMETRY AOS:          150
 NUMBER OF CONTRACTIONS:          100   (  21Ag  +  12B3u +  12B2u +   5B1g +  21B1u +  12B2g +  12B3g +   5Au  )
 NUMBER OF CORE ORBITALS:          10   (   3Ag  +   1B3u +   1B2u +   0B1g +   3B1u +   1B2g +   1B3g +   0Au  )
 NUMBER OF VALENCE ORBITALS:        8   (   2Ag  +   1B3u +   1B2u +   0B1g +   2B1u +   1B2g +   1B3g +   0Au  )


 NUCLEAR REPULSION ENERGY   48.98669020

 EXTRA SYMMETRY OF AOS IN SYMMETRY 1:   1 1 1 1 1 1 1 1 1 1   1 1 2 1 2 1 2 1 2 1   2
 EXTRA SYMMETRY OF AOS IN SYMMETRY 2:   1 1 1 1 1 1 1 1 1 2   1 2
 EXTRA SYMMETRY OF AOS IN SYMMETRY 3:   1 1 1 1 1 1 1 1 1 2   1 2
 EXTRA SYMMETRY OF AOS IN SYMMETRY 5:   1 1 1 1 1 1 1 1 1 1   1 1 2 1 2 1 2 1 2 1   2
 EXTRA SYMMETRY OF AOS IN SYMMETRY 6:   1 1 1 1 1 1 1 1 1 2   1 2
 EXTRA SYMMETRY OF AOS IN SYMMETRY 7:   1 1 1 1 1 1 1 1 1 2   1 2

 Eigenvalues of metric

         1 0.622E-02 0.214E-01 0.890E-01 0.154E+00 0.173E+00 0.245E+00 0.288E+00 0.304E+00
         2 0.217E-01 0.182E+00 0.287E+00 0.293E+00 0.297E+00 0.809E+00 0.878E+00 0.143E+01
         3 0.217E-01 0.182E+00 0.287E+00 0.293E+00 0.297E+00 0.809E+00 0.878E+00 0.143E+01
         4 0.173E+00 0.288E+00 0.796E+00 0.171E+01 0.206E+01
         5 0.502E-02 0.162E-01 0.307E-01 0.117E+00 0.164E+00 0.177E+00 0.270E+00 0.286E+00
         6 0.206E-01 0.132E+00 0.231E+00 0.281E+00 0.287E+00 0.627E+00 0.755E+00 0.127E+01
         7 0.206E-01 0.132E+00 0.231E+00 0.281E+00 0.287E+00 0.627E+00 0.755E+00 0.127E+01
         8 0.164E+00 0.286E+00 0.777E+00 0.171E+01 0.203E+01


 Contracted 2-electron integrals neglected if value below      1.0D-11
 AO integral compression algorithm  1   Integral accuracy      1.0D-11

     12.845 MB (compressed) written to integral file ( 46.6%)

     Node minimum: 12.845 MB, node maximum: 12.845 MB


 NUMBER OF SORTED TWO-ELECTRON INTEGRALS:    1699305.     BUFFER LENGTH:  32768
 NUMBER OF SEGMENTS:   1  SEGMENT LENGTH:    1699305      RECORD LENGTH: 524288

 Memory used in sort:       2.26 MW

 SORT1 READ     3485072. AND WROTE     1403802. INTEGRALS IN      5 RECORDS. CPU TIME:     0.05 SEC, REAL TIME:     0.08 SEC
 SORT2 READ     1403802. AND WROTE     1699305. INTEGRALS IN     49 RECORDS. CPU TIME:     0.10 SEC, REAL TIME:     0.10 SEC

 FILE SIZES:   FILE 1:     9.2 MBYTE,  FILE 4:    21.0 MBYTE,   TOTAL:     30.2 MBYTE

 OPERATOR DM      FOR CENTER  0  COORDINATES:    0.000000    0.000000    0.000000


 **********************************************************************************************************************************
 DATASETS  * FILE   NREC   LENGTH (MB)   RECORD NAMES
              1      19        9.23       500      610      700      900      950      970     1000      129      960     1100   
                                          VAR    BASINP    GEOM    SYMINP    ZMAT    AOBASIS   BASIS     P2S    ABASIS      S 
                                         1400     1410     1200     1210     1080     1600     1650     1300     1700   
                                           T        V       H0       H01     AOSYM     SMH    MOLCAS    ERIS     OPER   

              2       3        0.31       700     1000     2100   
                                         GEOM     BASIS     RHF  

 PROGRAMS   *        TOTAL       INT   CCSD(T)        HF       INT   CCSD(T)        HF       INT
 CPU TIMES  *         3.05      0.65      0.50      0.01      0.65      0.52      0.02      0.66
 REAL TIME  *         3.32 SEC
 DISK USED  *        43.63 MB      
 GA USED    *         0.00 MB       (max)       0.00 MB       (current)
 **********************************************************************************************************************************

1PROGRAM * RHF-SCF (CLOSED SHELL)       Authors: W. Meyer, H.-J. Werner


 NUMBER OF ELECTRONS:      18+   18-
 CONVERGENCE THRESHOLDS:    1.00E-05 (Density)    1.00E-07 (Energy)
 MAX. NUMBER OF ITERATIONS:       60
 INTERPOLATION TYPE:            DIIS
 INTERPOLATION STEPS:              2 (START)      1 (STEP)
 LEVEL SHIFTS:                  0.00 (CLOSED)  0.00 (OPEN) 



 Molecular orbitals read from record     2100.2  Type=RHF/CANONICAL (state 1.1)

 Molecular orbital dump at record        2100.2

 ITERATION    DDIFF          GRAD             ENERGY        2-EL.EN.            DIPOLE MOMENTS         DIIS
    1      0.000D+00      0.000D+00     -1053.62565601    903.617976    0.00000    0.00000    0.00000    0
    2      0.000D+00      0.168D-03     -1053.62566185    903.634621    0.00000    0.00000    0.00000    1
    3      0.287D-03      0.204D-04     -1053.62566197    903.628935    0.00000    0.00000    0.00000    2
    4      0.493D-04      0.455D-05     -1053.62566198    903.630440    0.00000    0.00000    0.00000    3
    5      0.507D-05      0.555D-06     -1053.62566198    903.630314    0.00000    0.00000    0.00000    0

 Final occupancy:   5   2   2   0   5   2   2   0

 !RHF STATE 1.1 Energy              -1053.625661978346
 Nuclear energy                        48.98669020
 One-electron energy                -1554.42750903
 Two-electron energy                  451.81515685
 Virial quotient                       -1.00002287
 !RHF STATE 1.1 Dipole moment           0.00000000     0.00000000     0.00000000
 Dipole moment /Debye                   0.00000000     0.00000000     0.00000000

 Orbital energies:

         1.1          2.1          3.1          4.1          5.1          6.1          7.1
   -118.611308   -12.322486    -9.571451    -1.279158    -0.603464     0.132426     0.159444

         1.2          2.2          3.2          4.2
     -9.571453    -0.592936     0.119894     0.367056

         1.3          2.3          3.3          4.3
     -9.571453    -0.592936     0.119894     0.367056

         1.4          2.4
      0.397024     1.049804

         1.5          2.5          3.5          4.5          5.5          6.5          7.5
   -118.611308   -12.322488    -9.571453    -1.276176    -0.579212     0.109762     0.259562

         1.6          2.6          3.6          4.6
     -9.571454    -0.589204     0.153784     0.482962

         1.7          2.7          3.7          4.7
     -9.571454    -0.589204     0.153784     0.482962

         1.8          2.8
      0.421122     1.075159


 **********************************************************************************************************************************
 DATASETS  * FILE   NREC   LENGTH (MB)   RECORD NAMES
              1      19        9.23       500      610      700      900      950      970     1000      129      960     1100   
                                          VAR    BASINP    GEOM    SYMINP    ZMAT    AOBASIS   BASIS     P2S    ABASIS      S 
                                         1400     1410     1200     1210     1080     1600     1650     1300     1700   
                                           T        V       H0       H01     AOSYM     SMH    MOLCAS    ERIS     OPER   

              2       3        0.31       700     1000     2100   
                                         GEOM     BASIS     RHF  

 PROGRAMS   *        TOTAL        HF       INT   CCSD(T)        HF       INT   CCSD(T)        HF       INT
 CPU TIMES  *         3.06      0.01      0.65      0.50      0.01      0.65      0.52      0.02      0.66
 REAL TIME  *         3.34 SEC
 DISK USED  *        43.63 MB      
 GA USED    *         0.00 MB       (max)       0.00 MB       (current)
 **********************************************************************************************************************************


1PROGRAM * CCSD (Closed-shell coupled cluster)     Authors: C. Hampel, H.-J. Werner, 1991, M. Deegan, P.J. Knowles, 1992


 Convergence thresholds:  THRVAR = 1.00D-08  THRDEN = 1.00D-06

 CCSD(T)     terms to be evaluated (factor= 1.000)


 Number of core orbitals:          10 (   3   1   1   0   3   1   1   0 )
 Number of closed-shell orbitals:   8 (   2   1   1   0   2   1   1   0 )
 Number of external orbitals:      82 (  16  10  10   5  16  10  10   5 )

 Molecular orbitals read from record     2100.2  Type=RHF/CANONICAL (state 1.1)

 Number of N-1 electron functions:               8
 Number of N-2 electron functions:              36
 Number of singly external CSFs:               104
 Number of doubly external CSFs:             28192
 Total number of CSFs:                       28297

 Length of J-op  integral file:               0.00 MB
 Length of K-op  integral file:               0.14 MB
 Length of 3-ext integral record:             0.00 MB

 Memory could be reduced to 1.14 Mwords without degradation in triples

 Integral transformation finished. Total CPU:   0.02 sec, npass=  1  Memory used:   0.42 MW

 Reference energy:                  -1053.62566198

 MP2 singlet pair energy:              -0.26403302
 MP2 triplet pair energy:              -0.15921636
 MP2 correlation energy:               -0.42324938
 MP2 total energy:                  -1054.04891136

 SCS-MP2 correlation energy:           -0.41590758   (PS=  1.200000  PT=  0.333333)
 SCS-MP2 total energy:              -1054.04156956

 ITER.      SQ.NORM     CORR.ENERGY   TOTAL ENERGY   ENERGY CHANGE        DEN1      VAR(S)    VAR(P)  DIIS     TIME
   1      1.14033187    -0.45625648 -1054.08191846    -0.03300710    -0.02577802  0.91D-04  0.13D-02  1  1     0.05
   2      1.14594370    -0.45722686 -1054.08288884    -0.00097038    -0.00782205  0.28D-05  0.34D-04  2  2     0.08
   3      1.14640411    -0.45721953 -1054.08288151     0.00000733    -0.00033266  0.46D-06  0.17D-05  3  3     0.11
   4      1.14651585    -0.45722896 -1054.08289094    -0.00000943    -0.00003901  0.23D-07  0.41D-07  4  4     0.14
   5      1.14652826    -0.45722819 -1054.08289017     0.00000077    -0.00000606  0.22D-08  0.18D-08  5  5     0.18
   6      1.14653002    -0.45722776 -1054.08288974     0.00000043    -0.00000068  0.14D-09  0.13D-09  6  6     0.21

 Norm of t1 vector:      0.01191847      S-energy:    -0.00000006      T1 diagnostic:  0.00210691
                                                                       D1 diagnostic:  0.00359017

 Total CPU time for triples:      0.30 sec


 RESULTS
 =======

  Reference energy                  -1053.625661978347
  CCSD singlet pair energy             -0.302858845049
  CCSD triplet pair energy             -0.154368855505
  CCSD correlation energy              -0.457227762227

  Triples (T) contribution             -0.014849871077
  Total correlation energy             -0.472077633305

  CCSD total energy                 -1054.082889740574
  CCSD[T] energy                    -1054.097766501369
  CCSD-T energy                     -1054.097744667098
 !CCSD(T) total energy              -1054.097739611651

 Timing summary (sec):

 STEP                 CPU(USER)    SYS     CPU(TOT)    WALL
 Transformation          0.02      0.01      0.03      0.03
 CCSD iterations         0.19      0.02      0.21      0.22
 Triples                 0.30      0.01      0.31      0.30

 Program statistics:

 Available memory in ccsd:                 7999644
 Min. memory needed in ccsd:                100355
 Max. memory used in ccsd:                  123091
 Max. memory used in cckext:                150987 ( 6 integral passes)



 **********************************************************************************************************************************
 DATASETS  * FILE   NREC   LENGTH (MB)   RECORD NAMES
              1      20       12.29       500      610      700      900      950      970     1000      129      960     1100   
                                          VAR    BASINP    GEOM    SYMINP    ZMAT    AOBASIS   BASIS     P2S    ABASIS      S 
                                         1400     1410     1200     1210     1080     1600     1650     1300     1700     1380   
                                           T        V       H0       H01     AOSYM     SMH    MOLCAS    ERIS     OPER     JKOP   

              2       3        0.31       700     1000     2100   
                                         GEOM     BASIS     RHF  

 PROGRAMS   *        TOTAL   CCSD(T)        HF       INT   CCSD(T)        HF       INT   CCSD(T)        HF       INT
 CPU TIMES  *         3.59      0.53      0.01      0.65      0.50      0.01      0.65      0.52      0.02      0.66
 REAL TIME  *         3.91 SEC
 DISK USED  *        43.63 MB      
 GA USED    *         0.00 MB       (max)       0.00 MB       (current)
 **********************************************************************************************************************************
 SETTING E_VDW          =     -1054.09773961  AU                              
 SETTING E(3)           =     -1054.09773961  AU                              

 DO I                   =         4.00000000   
 SETTING R              =         3.60000000  ANGSTREM                        
 SETTING DIST(4)        =         3.60000000  ANGSTREM                        


 Recomputing integrals since geometry changed

1PROGRAM * SEWARD (Integral evaluation for generally contracted gaussian basis sets)     Author: Roland Lindh, 1990

 Geometry written to block  1 of record 700

 Orientation using atomic masses  
 Molecule type: Linear
 Symmetry elements: X,Y,Z
 Rotational constants:       1.9523026      1.9523026      0.0000000 GHz  (calculated with average atomic masses)

 Point group  D2h 



 ATOMIC COORDINATES

 NR  ATOM    CHARGE       X              Y              Z

   1  AR     18.00    0.000000000    0.000000000   -3.401507037
   2  AR     18.00    0.000000000    0.000000000    3.401507037

 NUCLEAR CHARGE:                   36
 NUMBER OF PRIMITIVE AOS:         168
 NUMBER OF SYMMETRY AOS:          150
 NUMBER OF CONTRACTIONS:          100   (  21Ag  +  12B3u +  12B2u +   5B1g +  21B1u +  12B2g +  12B3g +   5Au  )
 NUMBER OF CORE ORBITALS:          10   (   3Ag  +   1B3u +   1B2u +   0B1g +   3B1u +   1B2g +   1B3g +   0Au  )
 NUMBER OF VALENCE ORBITALS:        8   (   2Ag  +   1B3u +   1B2u +   0B1g +   2B1u +   1B2g +   1B3g +   0Au  )


 NUCLEAR REPULSION ENERGY   47.62594881

 EXTRA SYMMETRY OF AOS IN SYMMETRY 1:   1 1 1 1 1 1 1 1 1 1   1 1 2 1 2 1 2 1 2 1   2
 EXTRA SYMMETRY OF AOS IN SYMMETRY 2:   1 1 1 1 1 1 1 1 1 2   1 2
 EXTRA SYMMETRY OF AOS IN SYMMETRY 3:   1 1 1 1 1 1 1 1 1 2   1 2
 EXTRA SYMMETRY OF AOS IN SYMMETRY 5:   1 1 1 1 1 1 1 1 1 1   1 1 2 1 2 1 2 1 2 1   2
 EXTRA SYMMETRY OF AOS IN SYMMETRY 6:   1 1 1 1 1 1 1 1 1 2   1 2
 EXTRA SYMMETRY OF AOS IN SYMMETRY 7:   1 1 1 1 1 1 1 1 1 2   1 2

 Eigenvalues of metric

         1 0.623E-02 0.213E-01 0.895E-01 0.160E+00 0.172E+00 0.246E+00 0.287E+00 0.301E+00
         2 0.216E-01 0.182E+00 0.287E+00 0.291E+00 0.297E+00 0.805E+00 0.875E+00 0.143E+01
         3 0.216E-01 0.182E+00 0.287E+00 0.291E+00 0.297E+00 0.805E+00 0.875E+00 0.143E+01
         4 0.172E+00 0.287E+00 0.794E+00 0.171E+01 0.205E+01
         5 0.508E-02 0.175E-01 0.331E-01 0.119E+00 0.165E+00 0.179E+00 0.275E+00 0.286E+00
         6 0.207E-01 0.136E+00 0.233E+00 0.283E+00 0.287E+00 0.639E+00 0.760E+00 0.128E+01
         7 0.207E-01 0.136E+00 0.233E+00 0.283E+00 0.287E+00 0.639E+00 0.760E+00 0.128E+01
         8 0.165E+00 0.286E+00 0.778E+00 0.171E+01 0.204E+01


 Contracted 2-electron integrals neglected if value below      1.0D-11
 AO integral compression algorithm  1   Integral accuracy      1.0D-11

     12.845 MB (compressed) written to integral file ( 46.5%)

     Node minimum: 12.845 MB, node maximum: 12.845 MB


 NUMBER OF SORTED TWO-ELECTRON INTEGRALS:    1699305.     BUFFER LENGTH:  32768
 NUMBER OF SEGMENTS:   1  SEGMENT LENGTH:    1699305      RECORD LENGTH: 524288

 Memory used in sort:       2.26 MW

 SORT1 READ     3485072. AND WROTE     1403720. INTEGRALS IN      5 RECORDS. CPU TIME:     0.06 SEC, REAL TIME:     0.08 SEC
 SORT2 READ     1403720. AND WROTE     1699305. INTEGRALS IN     49 RECORDS. CPU TIME:     0.08 SEC, REAL TIME:     0.10 SEC

 FILE SIZES:   FILE 1:     9.2 MBYTE,  FILE 4:    21.0 MBYTE,   TOTAL:     30.2 MBYTE

 OPERATOR DM      FOR CENTER  0  COORDINATES:    0.000000    0.000000    0.000000


 **********************************************************************************************************************************
 DATASETS  * FILE   NREC   LENGTH (MB)   RECORD NAMES
              1      19        9.22       500      610      700      900      950      970     1000      129      960     1100   
                                          VAR    BASINP    GEOM    SYMINP    ZMAT    AOBASIS   BASIS     P2S    ABASIS      S 
                                         1400     1410     1200     1210     1080     1600     1650     1300     1700   
                                           T        V       H0       H01     AOSYM     SMH    MOLCAS    ERIS     OPER   

              2       3        0.31       700     1000     2100   
                                         GEOM     BASIS     RHF  

 PROGRAMS   *        TOTAL       INT   CCSD(T)        HF       INT   CCSD(T)        HF       INT   CCSD(T)        HF       INT
 CPU TIMES  *         4.23      0.64      0.53      0.01      0.65      0.50      0.01      0.65      0.52      0.02      0.66
 REAL TIME  *         4.58 SEC
 DISK USED  *        43.63 MB      
 GA USED    *         0.00 MB       (max)       0.00 MB       (current)
 **********************************************************************************************************************************

1PROGRAM * RHF-SCF (CLOSED SHELL)       Authors: W. Meyer, H.-J. Werner


 NUMBER OF ELECTRONS:      18+   18-
 CONVERGENCE THRESHOLDS:    1.00E-05 (Density)    1.00E-07 (Energy)
 MAX. NUMBER OF ITERATIONS:       60
 INTERPOLATION TYPE:            DIIS
 INTERPOLATION STEPS:              2 (START)      1 (STEP)
 LEVEL SHIFTS:                  0.00 (CLOSED)  0.00 (OPEN) 



 Molecular orbitals read from record     2100.2  Type=RHF/CANONICAL (state 1.1)

 Molecular orbital dump at record        2100.2

 ITERATION    DDIFF          GRAD             ENERGY        2-EL.EN.            DIPOLE MOMENTS         DIIS
    1      0.000D+00      0.000D+00     -1053.62598413    900.892704    0.00000    0.00000    0.00000    0
    2      0.000D+00      0.145D-03     -1053.62598830    900.904923    0.00000    0.00000    0.00000    1
    3      0.265D-03      0.165D-04     -1053.62598838    900.900671    0.00000    0.00000    0.00000    2
    4      0.432D-04      0.341D-05     -1053.62598838    900.901823    0.00000    0.00000    0.00000    3
    5      0.412D-05      0.449D-06     -1053.62598838    900.901693    0.00000    0.00000    0.00000    0

 Final occupancy:   5   2   2   0   5   2   2   0

 !RHF STATE 1.1 Energy              -1053.625988379402
 Nuclear energy                        47.62594881
 One-electron energy                -1551.70278352
 Two-electron energy                  450.45084633
 Virial quotient                       -1.00002658
 !RHF STATE 1.1 Dipole moment           0.00000000     0.00000000     0.00000000
 Dipole moment /Debye                   0.00000000     0.00000000     0.00000000

 Orbital energies:

         1.1          2.1          3.1          4.1          5.1          6.1          7.1
   -118.611493   -12.322645    -9.571612    -1.278851    -0.601465     0.132152     0.157805

         1.2          2.2          3.2          4.2
     -9.571615    -0.592634     0.119497     0.369021

         1.3          2.3          3.3          4.3
     -9.571615    -0.592634     0.119497     0.369021

         1.4          2.4
      0.398678     1.050950

         1.5          2.5          3.5          4.5          5.5          6.5          7.5
   -118.611493   -12.322647    -9.571614    -1.276550    -0.581210     0.110830     0.256380

         1.6          2.6          3.6          4.6
     -9.571615    -0.589619     0.153327     0.476121

         1.7          2.7          3.7          4.7
     -9.571615    -0.589619     0.153327     0.476121

         1.8          2.8
      0.419381     1.073734


 **********************************************************************************************************************************
 DATASETS  * FILE   NREC   LENGTH (MB)   RECORD NAMES
              1      19        9.22       500      610      700      900      950      970     1000      129      960     1100   
                                          VAR    BASINP    GEOM    SYMINP    ZMAT    AOBASIS   BASIS     P2S    ABASIS      S 
                                         1400     1410     1200     1210     1080     1600     1650     1300     1700   
                                           T        V       H0       H01     AOSYM     SMH    MOLCAS    ERIS     OPER   

              2       3        0.31       700     1000     2100   
                                         GEOM     BASIS     RHF  

 PROGRAMS   *        TOTAL        HF       INT   CCSD(T)        HF       INT   CCSD(T)        HF       INT   CCSD(T)        HF
 CPU TIMES  *         4.26      0.03      0.64      0.53      0.01      0.65      0.50      0.01      0.65      0.52      0.02
 REAL TIME  *         4.60 SEC
 DISK USED  *        43.63 MB      
 GA USED    *         0.00 MB       (max)       0.00 MB       (current)
 **********************************************************************************************************************************


1PROGRAM * CCSD (Closed-shell coupled cluster)     Authors: C. Hampel, H.-J. Werner, 1991, M. Deegan, P.J. Knowles, 1992


 Convergence thresholds:  THRVAR = 1.00D-08  THRDEN = 1.00D-06

 CCSD(T)     terms to be evaluated (factor= 1.000)


 Number of core orbitals:          10 (   3   1   1   0   3   1   1   0 )
 Number of closed-shell orbitals:   8 (   2   1   1   0   2   1   1   0 )
 Number of external orbitals:      82 (  16  10  10   5  16  10  10   5 )

 Molecular orbitals read from record     2100.2  Type=RHF/CANONICAL (state 1.1)

 Number of N-1 electron functions:               8
 Number of N-2 electron functions:              36
 Number of singly external CSFs:               104
 Number of doubly external CSFs:             28192
 Total number of CSFs:                       28297

 Length of J-op  integral file:               0.00 MB
 Length of K-op  integral file:               0.14 MB
 Length of 3-ext integral record:             0.00 MB

 Memory could be reduced to 1.14 Mwords without degradation in triples

 Integral transformation finished. Total CPU:   0.02 sec, npass=  1  Memory used:   0.42 MW

 Reference energy:                  -1053.62598838

 MP2 singlet pair energy:              -0.26396810
 MP2 triplet pair energy:              -0.15906420
 MP2 correlation energy:               -0.42303230
 MP2 total energy:                  -1054.04902068

 SCS-MP2 correlation energy:           -0.41573500   (PS=  1.200000  PT=  0.333333)
 SCS-MP2 total energy:              -1054.04172338

 ITER.      SQ.NORM     CORR.ENERGY   TOTAL ENERGY   ENERGY CHANGE        DEN1      VAR(S)    VAR(P)  DIIS     TIME
   1      1.14029911    -0.45608338 -1054.08207176    -0.03305108    -0.02582051  0.90D-04  0.13D-02  1  1     0.05
   2      1.14591143    -0.45705326 -1054.08304164    -0.00096988    -0.00782512  0.28D-05  0.34D-04  2  2     0.08
   3      1.14637037    -0.45704629 -1054.08303467     0.00000696    -0.00033138  0.45D-06  0.17D-05  3  3     0.12
   4      1.14648132    -0.45705581 -1054.08304419    -0.00000951    -0.00003864  0.23D-07  0.40D-07  4  4     0.16
   5      1.14649366    -0.45705500 -1054.08304338     0.00000081    -0.00000612  0.22D-08  0.18D-08  5  5     0.18
   6      1.14649535    -0.45705459 -1054.08304296     0.00000041    -0.00000063  0.13D-09  0.12D-09  6  6     0.21

 Norm of t1 vector:      0.01179820      S-energy:    -0.00000006      T1 diagnostic:  0.00208565
                                                                       D1 diagnostic:  0.00351149

 Total CPU time for triples:      0.28 sec


 RESULTS
 =======

  Reference energy                  -1053.625988379402
  CCSD singlet pair energy             -0.302815438067
  CCSD triplet pair energy             -0.154239090924
  CCSD correlation energy              -0.457054585415

  Triples (T) contribution             -0.014826781255
  Total correlation energy             -0.471881366670

  CCSD total energy                 -1054.083042964817
  CCSD[T] energy                    -1054.097896569725
  CCSD-T energy                     -1054.097874916996
 !CCSD(T) total energy              -1054.097869746071

 Timing summary (sec):

 STEP                 CPU(USER)    SYS     CPU(TOT)    WALL
 Transformation          0.02      0.01      0.03      0.02
 CCSD iterations         0.19      0.02      0.21      0.23
 Triples                 0.28      0.02      0.30      0.30

 Program statistics:

 Available memory in ccsd:                 7999644
 Min. memory needed in ccsd:                100355
 Max. memory used in ccsd:                  123091
 Max. memory used in cckext:                150987 ( 6 integral passes)



 **********************************************************************************************************************************
 DATASETS  * FILE   NREC   LENGTH (MB)   RECORD NAMES
              1      20       12.28       500      610      700      900      950      970     1000      129      960     1100   
                                          VAR    BASINP    GEOM    SYMINP    ZMAT    AOBASIS   BASIS     P2S    ABASIS      S 
                                         1400     1410     1200     1210     1080     1600     1650     1300     1700     1380   
                                           T        V       H0       H01     AOSYM     SMH    MOLCAS    ERIS     OPER     JKOP   

              2       3        0.31       700     1000     2100   
                                         GEOM     BASIS     RHF  

 PROGRAMS   *        TOTAL   CCSD(T)        HF       INT   CCSD(T)        HF       INT   CCSD(T)        HF       INT   CCSD(T)
 CPU TIMES  *         4.76      0.50      0.03      0.64      0.53      0.01      0.65      0.50      0.01      0.65      0.52
 REAL TIME  *         5.17 SEC
 DISK USED  *        43.63 MB      
 GA USED    *         0.00 MB       (max)       0.00 MB       (current)
 **********************************************************************************************************************************
 SETTING E_VDW          =     -1054.09786975  AU                              
 SETTING E(4)           =     -1054.09786975  AU                              

 DO I                   =         5.00000000   
 SETTING R              =         3.70000000  ANGSTREM                        
 SETTING DIST(5)        =         3.70000000  ANGSTREM                        


 Recomputing integrals since geometry changed

1PROGRAM * SEWARD (Integral evaluation for generally contracted gaussian basis sets)     Author: Roland Lindh, 1990

 Geometry written to block  1 of record 700

 Orientation using atomic masses  
 Molecule type: Linear
 Symmetry elements: X,Y,Z
 Rotational constants:       1.8481988      1.8481988      0.0000000 GHz  (calculated with average atomic masses)

 Point group  D2h 



 ATOMIC COORDINATES

 NR  ATOM    CHARGE       X              Y              Z

   1  AR     18.00    0.000000000    0.000000000   -3.495993343
   2  AR     18.00    0.000000000    0.000000000    3.495993343

 NUCLEAR CHARGE:                   36
 NUMBER OF PRIMITIVE AOS:         168
 NUMBER OF SYMMETRY AOS:          150
 NUMBER OF CONTRACTIONS:          100   (  21Ag  +  12B3u +  12B2u +   5B1g +  21B1u +  12B2g +  12B3g +   5Au  )
 NUMBER OF CORE ORBITALS:          10   (   3Ag  +   1B3u +   1B2u +   0B1g +   3B1u +   1B2g +   1B3g +   0Au  )
 NUMBER OF VALENCE ORBITALS:        8   (   2Ag  +   1B3u +   1B2u +   0B1g +   2B1u +   1B2g +   1B3g +   0Au  )


 NUCLEAR REPULSION ENERGY   46.33876100

 EXTRA SYMMETRY OF AOS IN SYMMETRY 1:   1 1 1 1 1 1 1 1 1 1   1 1 2 1 2 1 2 1 2 1   2
 EXTRA SYMMETRY OF AOS IN SYMMETRY 2:   1 1 1 1 1 1 1 1 1 2   1 2
 EXTRA SYMMETRY OF AOS IN SYMMETRY 3:   1 1 1 1 1 1 1 1 1 2   1 2
 EXTRA SYMMETRY OF AOS IN SYMMETRY 5:   1 1 1 1 1 1 1 1 1 1   1 1 2 1 2 1 2 1 2 1   2
 EXTRA SYMMETRY OF AOS IN SYMMETRY 6:   1 1 1 1 1 1 1 1 1 2   1 2
 EXTRA SYMMETRY OF AOS IN SYMMETRY 7:   1 1 1 1 1 1 1 1 1 2   1 2

 Eigenvalues of metric

         1 0.625E-02 0.212E-01 0.898E-01 0.166E+00 0.172E+00 0.246E+00 0.287E+00 0.298E+00
         2 0.216E-01 0.182E+00 0.287E+00 0.290E+00 0.297E+00 0.801E+00 0.871E+00 0.142E+01
         3 0.216E-01 0.182E+00 0.287E+00 0.290E+00 0.297E+00 0.801E+00 0.871E+00 0.142E+01
         4 0.172E+00 0.287E+00 0.793E+00 0.171E+01 0.205E+01
         5 0.513E-02 0.185E-01 0.358E-01 0.122E+00 0.165E+00 0.182E+00 0.278E+00 0.286E+00
         6 0.208E-01 0.140E+00 0.236E+00 0.284E+00 0.287E+00 0.650E+00 0.765E+00 0.128E+01
         7 0.208E-01 0.140E+00 0.236E+00 0.284E+00 0.287E+00 0.650E+00 0.765E+00 0.128E+01
         8 0.165E+00 0.286E+00 0.780E+00 0.171E+01 0.204E+01


 Contracted 2-electron integrals neglected if value below      1.0D-11
 AO integral compression algorithm  1   Integral accuracy      1.0D-11

     12.845 MB (compressed) written to integral file ( 46.3%)

     Node minimum: 12.845 MB, node maximum: 12.845 MB


 NUMBER OF SORTED TWO-ELECTRON INTEGRALS:    1699305.     BUFFER LENGTH:  32768
 NUMBER OF SEGMENTS:   1  SEGMENT LENGTH:    1699305      RECORD LENGTH: 524288

 Memory used in sort:       2.26 MW

 SORT1 READ     3485072. AND WROTE     1403458. INTEGRALS IN      5 RECORDS. CPU TIME:     0.06 SEC, REAL TIME:     0.07 SEC
 SORT2 READ     1403458. AND WROTE     1699305. INTEGRALS IN     49 RECORDS. CPU TIME:     0.08 SEC, REAL TIME:     0.11 SEC

 FILE SIZES:   FILE 1:     9.2 MBYTE,  FILE 4:    21.0 MBYTE,   TOTAL:     30.2 MBYTE

 OPERATOR DM      FOR CENTER  0  COORDINATES:    0.000000    0.000000    0.000000


 **********************************************************************************************************************************
 DATASETS  * FILE   NREC   LENGTH (MB)   RECORD NAMES
              1      19        9.22       500      610      700      900      950      970     1000      129      960     1100   
                                          VAR    BASINP    GEOM    SYMINP    ZMAT    AOBASIS   BASIS     P2S    ABASIS      S 
                                         1400     1410     1200     1210     1080     1600     1650     1300     1700   
                                           T        V       H0       H01     AOSYM     SMH    MOLCAS    ERIS     OPER   

              2       3        0.31       700     1000     2100   
                                         GEOM     BASIS     RHF  

 PROGRAMS   *        TOTAL       INT   CCSD(T)        HF       INT   CCSD(T)        HF       INT   CCSD(T)        HF       INT
 CPU TIMES  *         5.38      0.62      0.50      0.03      0.64      0.53      0.01      0.65      0.50      0.01      0.65
 REAL TIME  *         5.83 SEC
 DISK USED  *        43.63 MB      
 GA USED    *         0.00 MB       (max)       0.00 MB       (current)
 **********************************************************************************************************************************

1PROGRAM * RHF-SCF (CLOSED SHELL)       Authors: W. Meyer, H.-J. Werner


 NUMBER OF ELECTRONS:      18+   18-
 CONVERGENCE THRESHOLDS:    1.00E-05 (Density)    1.00E-07 (Energy)
 MAX. NUMBER OF ITERATIONS:       60
 INTERPOLATION TYPE:            DIIS
 INTERPOLATION STEPS:              2 (START)      1 (STEP)
 LEVEL SHIFTS:                  0.00 (CLOSED)  0.00 (OPEN) 



 Molecular orbitals read from record     2100.2  Type=RHF/CANONICAL (state 1.1)

 Molecular orbital dump at record        2100.2

 ITERATION    DDIFF          GRAD             ENERGY        2-EL.EN.            DIPOLE MOMENTS         DIIS
    1      0.000D+00      0.000D+00     -1053.62621089    898.315554    0.00000    0.00000    0.00000    0
    2      0.000D+00      0.127D-03     -1053.62621398    898.324089    0.00000    0.00000    0.00000    1
    3      0.246D-03      0.136D-04     -1053.62621403    898.321053    0.00000    0.00000    0.00000    2
    4      0.381D-04      0.252D-05     -1053.62621403    898.321903    0.00000    0.00000    0.00000    3
    5      0.339D-05      0.383D-06     -1053.62621403    898.321772    0.00000    0.00000    0.00000    0

 Final occupancy:   5   2   2   0   5   2   2   0

 !RHF STATE 1.1 Energy              -1053.626214033835
 Nuclear energy                        46.33876100
 One-electron energy                -1549.12586106
 Two-electron energy                  449.16088602
 Virial quotient                       -1.00002926
 !RHF STATE 1.1 Dipole moment           0.00000000     0.00000000     0.00000000
 Dipole moment /Debye                   0.00000000     0.00000000     0.00000000

 Orbital energies:

         1.1          2.1          3.1          4.1          5.1          6.1          7.1
   -118.611633   -12.322767    -9.571735    -1.278617    -0.599787     0.131750     0.156231

         1.2          2.2          3.2          4.2
     -9.571737    -0.592390     0.119133     0.371381

         1.3          2.3          3.3          4.3
     -9.571737    -0.592390     0.119133     0.371381

         1.4          2.4
      0.400167     1.052124

         1.5          2.5          3.5          4.5          5.5          6.5          7.5
   -118.611633   -12.322768    -9.571736    -1.276843    -0.582885     0.111907     0.253259

         1.6          2.6          3.6          4.6
     -9.571738    -0.589955     0.152851     0.469562

         1.7          2.7          3.7          4.7
     -9.571738    -0.589955     0.152851     0.469562

         1.8          2.8
      0.417833     1.072334


 **********************************************************************************************************************************
 DATASETS  * FILE   NREC   LENGTH (MB)   RECORD NAMES
              1      19        9.22       500      610      700      900      950      970     1000      129      960     1100   
                                          VAR    BASINP    GEOM    SYMINP    ZMAT    AOBASIS   BASIS     P2S    ABASIS      S 
                                         1400     1410     1200     1210     1080     1600     1650     1300     1700   
                                           T        V       H0       H01     AOSYM     SMH    MOLCAS    ERIS     OPER   

              2       3        0.31       700     1000     2100   
                                         GEOM     BASIS     RHF  

 PROGRAMS   *        TOTAL        HF       INT   CCSD(T)        HF       INT   CCSD(T)        HF       INT   CCSD(T)        HF
 CPU TIMES  *         5.40      0.02      0.62      0.50      0.03      0.64      0.53      0.01      0.65      0.50      0.01
 REAL TIME  *         5.85 SEC
 DISK USED  *        43.63 MB      
 GA USED    *         0.00 MB       (max)       0.00 MB       (current)
 **********************************************************************************************************************************


1PROGRAM * CCSD (Closed-shell coupled cluster)     Authors: C. Hampel, H.-J. Werner, 1991, M. Deegan, P.J. Knowles, 1992


 Convergence thresholds:  THRVAR = 1.00D-08  THRDEN = 1.00D-06

 CCSD(T)     terms to be evaluated (factor= 1.000)


 Number of core orbitals:          10 (   3   1   1   0   3   1   1   0 )
 Number of closed-shell orbitals:   8 (   2   1   1   0   2   1   1   0 )
 Number of external orbitals:      82 (  16  10  10   5  16  10  10   5 )

 Molecular orbitals read from record     2100.2  Type=RHF/CANONICAL (state 1.1)

 Number of N-1 electron functions:               8
 Number of N-2 electron functions:              36
 Number of singly external CSFs:               104
 Number of doubly external CSFs:             28192
 Total number of CSFs:                       28297

 Length of J-op  integral file:               0.00 MB
 Length of K-op  integral file:               0.14 MB
 Length of 3-ext integral record:             0.00 MB

 Memory could be reduced to 1.14 Mwords without degradation in triples

 Integral transformation finished. Total CPU:   0.02 sec, npass=  1  Memory used:   0.42 MW

 Reference energy:                  -1053.62621403

 MP2 singlet pair energy:              -0.26391358
 MP2 triplet pair energy:              -0.15893809
 MP2 correlation energy:               -0.42285167
 MP2 total energy:                  -1054.04906570

 SCS-MP2 correlation energy:           -0.41559111   (PS=  1.200000  PT=  0.333333)
 SCS-MP2 total energy:              -1054.04180514

 ITER.      SQ.NORM     CORR.ENERGY   TOTAL ENERGY   ENERGY CHANGE        DEN1      VAR(S)    VAR(P)  DIIS     TIME
   1      1.14027026    -0.45593899 -1054.08215303    -0.03308732    -0.02585555  0.89D-04  0.13D-02  1  1     0.06
   2      1.14588278    -0.45690842 -1054.08312245    -0.00096942    -0.00782764  0.28D-05  0.34D-04  2  2     0.09
   3      1.14634041    -0.45690176 -1054.08311579     0.00000665    -0.00033027  0.43D-06  0.17D-05  3  3     0.12
   4      1.14645068    -0.45691134 -1054.08312538    -0.00000958    -0.00003833  0.23D-07  0.40D-07  4  4     0.15
   5      1.14646295    -0.45691050 -1054.08312454     0.00000084    -0.00000617  0.21D-08  0.18D-08  5  5     0.19
   6      1.14646458    -0.45691010 -1054.08312413     0.00000040    -0.00000058  0.13D-09  0.12D-09  6  6     0.22

 Norm of t1 vector:      0.01169247      S-energy:    -0.00000005      T1 diagnostic:  0.00206696
                                                                       D1 diagnostic:  0.00343814

 Total CPU time for triples:      0.29 sec


 RESULTS
 =======

  Reference energy                  -1053.626214033834
  CCSD singlet pair energy             -0.302778725019
  CCSD triplet pair energy             -0.154131323602
  CCSD correlation energy              -0.456910100732

  Triples (T) contribution             -0.014807276749
  Total correlation energy             -0.471717377481

  CCSD total energy                 -1054.083124134566
  CCSD[T] energy                    -1054.097958177906
  CCSD-T energy                     -1054.097936680501
 !CCSD(T) total energy              -1054.097931411315

 Timing summary (sec):

 STEP                 CPU(USER)    SYS     CPU(TOT)    WALL
 Transformation          0.02      0.00      0.02      0.03
 CCSD iterations         0.20      0.02      0.22      0.22
 Triples                 0.29      0.02      0.31      0.30

 Program statistics:

 Available memory in ccsd:                 7999644
 Min. memory needed in ccsd:                100355
 Max. memory used in ccsd:                  123091
 Max. memory used in cckext:                150987 ( 6 integral passes)



 **********************************************************************************************************************************
 DATASETS  * FILE   NREC   LENGTH (MB)   RECORD NAMES
              1      20       12.27       500      610      700      900      950      970     1000      129      960     1100   
                                          VAR    BASINP    GEOM    SYMINP    ZMAT    AOBASIS   BASIS     P2S    ABASIS      S 
                                         1400     1410     1200     1210     1080     1600     1650     1300     1700     1380   
                                           T        V       H0       H01     AOSYM     SMH    MOLCAS    ERIS     OPER     JKOP   

              2       3        0.31       700     1000     2100   
                                         GEOM     BASIS     RHF  

 PROGRAMS   *        TOTAL   CCSD(T)        HF       INT   CCSD(T)        HF       INT   CCSD(T)        HF       INT   CCSD(T)
 CPU TIMES  *         5.93      0.53      0.02      0.62      0.50      0.03      0.64      0.53      0.01      0.65      0.50
 REAL TIME  *         6.42 SEC
 DISK USED  *        43.63 MB      
 GA USED    *         0.00 MB       (max)       0.00 MB       (current)
 **********************************************************************************************************************************
 SETTING E_VDW          =     -1054.09793141  AU                              
 SETTING E(5)           =     -1054.09793141  AU                              

 DO I                   =         6.00000000   
 SETTING R              =         3.80000000  ANGSTREM                        
 SETTING DIST(6)        =         3.80000000  ANGSTREM                        


 Recomputing integrals since geometry changed

1PROGRAM * SEWARD (Integral evaluation for generally contracted gaussian basis sets)     Author: Roland Lindh, 1990

 Geometry written to block  1 of record 700

 Orientation using atomic masses  
 Molecule type: Linear
 Symmetry elements: X,Y,Z
 Rotational constants:       1.7522051      1.7522051      0.0000000 GHz  (calculated with average atomic masses)

 Point group  D2h 



 ATOMIC COORDINATES

 NR  ATOM    CHARGE       X              Y              Z

   1  AR     18.00    0.000000000    0.000000000   -3.590479650
   2  AR     18.00    0.000000000    0.000000000    3.590479650

 NUCLEAR CHARGE:                   36
 NUMBER OF PRIMITIVE AOS:         168
 NUMBER OF SYMMETRY AOS:          150
 NUMBER OF CONTRACTIONS:          100   (  21Ag  +  12B3u +  12B2u +   5B1g +  21B1u +  12B2g +  12B3g +   5Au  )
 NUMBER OF CORE ORBITALS:          10   (   3Ag  +   1B3u +   1B2u +   0B1g +   3B1u +   1B2g +   1B3g +   0Au  )
 NUMBER OF VALENCE ORBITALS:        8   (   2Ag  +   1B3u +   1B2u +   0B1g +   2B1u +   1B2g +   1B3g +   0Au  )


 NUCLEAR REPULSION ENERGY   45.11931993

 EXTRA SYMMETRY OF AOS IN SYMMETRY 1:   1 1 1 1 1 1 1 1 1 1   1 1 2 1 2 1 2 1 2 1   2
 EXTRA SYMMETRY OF AOS IN SYMMETRY 2:   1 1 1 1 1 1 1 1 1 2   1 2
 EXTRA SYMMETRY OF AOS IN SYMMETRY 3:   1 1 1 1 1 1 1 1 1 2   1 2
 EXTRA SYMMETRY OF AOS IN SYMMETRY 5:   1 1 1 1 1 1 1 1 1 1   1 1 2 1 2 1 2 1 2 1   2
 EXTRA SYMMETRY OF AOS IN SYMMETRY 6:   1 1 1 1 1 1 1 1 1 2   1 2
 EXTRA SYMMETRY OF AOS IN SYMMETRY 7:   1 1 1 1 1 1 1 1 1 2   1 2

 Eigenvalues of metric

         1 0.626E-02 0.211E-01 0.900E-01 0.171E+00 0.171E+00 0.247E+00 0.287E+00 0.295E+00
         2 0.216E-01 0.181E+00 0.287E+00 0.289E+00 0.297E+00 0.797E+00 0.866E+00 0.142E+01
         3 0.216E-01 0.181E+00 0.287E+00 0.289E+00 0.297E+00 0.797E+00 0.866E+00 0.142E+01
         4 0.171E+00 0.287E+00 0.791E+00 0.171E+01 0.205E+01
         5 0.519E-02 0.192E-01 0.388E-01 0.124E+00 0.166E+00 0.184E+00 0.281E+00 0.287E+00
         6 0.208E-01 0.143E+00 0.238E+00 0.285E+00 0.287E+00 0.660E+00 0.769E+00 0.129E+01
         7 0.208E-01 0.143E+00 0.238E+00 0.285E+00 0.287E+00 0.660E+00 0.769E+00 0.129E+01
         8 0.166E+00 0.287E+00 0.781E+00 0.171E+01 0.204E+01


 Contracted 2-electron integrals neglected if value below      1.0D-11
 AO integral compression algorithm  1   Integral accuracy      1.0D-11

     12.845 MB (compressed) written to integral file ( 46.1%)

     Node minimum: 12.845 MB, node maximum: 12.845 MB


 NUMBER OF SORTED TWO-ELECTRON INTEGRALS:    1699305.     BUFFER LENGTH:  32768
 NUMBER OF SEGMENTS:   1  SEGMENT LENGTH:    1699305      RECORD LENGTH: 524288

 Memory used in sort:       2.26 MW

 SORT1 READ     3485072. AND WROTE     1403018. INTEGRALS IN      5 RECORDS. CPU TIME:     0.06 SEC, REAL TIME:     0.07 SEC
 SORT2 READ     1403018. AND WROTE     1699305. INTEGRALS IN     49 RECORDS. CPU TIME:     0.09 SEC, REAL TIME:     0.10 SEC

 FILE SIZES:   FILE 1:     9.2 MBYTE,  FILE 4:    21.0 MBYTE,   TOTAL:     30.2 MBYTE

 OPERATOR DM      FOR CENTER  0  COORDINATES:    0.000000    0.000000    0.000000


 **********************************************************************************************************************************
 DATASETS  * FILE   NREC   LENGTH (MB)   RECORD NAMES
              1      19        9.21       500      610      700      900      950      970     1000      129      960     1100   
                                          VAR    BASINP    GEOM    SYMINP    ZMAT    AOBASIS   BASIS     P2S    ABASIS      S 
                                         1400     1410     1200     1210     1080     1600     1650     1300     1700   
                                           T        V       H0       H01     AOSYM     SMH    MOLCAS    ERIS     OPER   

              2       3        0.31       700     1000     2100   
                                         GEOM     BASIS     RHF  

 PROGRAMS   *        TOTAL       INT   CCSD(T)        HF       INT   CCSD(T)        HF       INT   CCSD(T)        HF       INT
 CPU TIMES  *         6.55      0.62      0.53      0.02      0.62      0.50      0.03      0.64      0.53      0.01      0.65
 REAL TIME  *         7.08 SEC
 DISK USED  *        43.63 MB      
 GA USED    *         0.00 MB       (max)       0.00 MB       (current)
 **********************************************************************************************************************************

1PROGRAM * RHF-SCF (CLOSED SHELL)       Authors: W. Meyer, H.-J. Werner


 NUMBER OF ELECTRONS:      18+   18-
 CONVERGENCE THRESHOLDS:    1.00E-05 (Density)    1.00E-07 (Energy)
 MAX. NUMBER OF ITERATIONS:       60
 INTERPOLATION TYPE:            DIIS
 INTERPOLATION STEPS:              2 (START)      1 (STEP)
 LEVEL SHIFTS:                  0.00 (CLOSED)  0.00 (OPEN) 



 Molecular orbitals read from record     2100.2  Type=RHF/CANONICAL (state 1.1)

 Molecular orbital dump at record        2100.2

 ITERATION    DDIFF          GRAD             ENERGY        2-EL.EN.            DIPOLE MOMENTS         DIIS
    1      0.000D+00      0.000D+00     -1053.62636726    895.874628    0.00000    0.00000    0.00000    0
    2      0.000D+00      0.112D-03     -1053.62636963    895.880165    0.00000    0.00000    0.00000    1
    3      0.229D-03      0.115D-04     -1053.62636967    895.878134    0.00000    0.00000    0.00000    2
    4      0.335D-04      0.183D-05     -1053.62636968    895.878728    0.00000    0.00000    0.00000    3
    5      0.286D-05      0.334D-06     -1053.62636968    895.878603    0.00000    0.00000    0.00000    0

 Final occupancy:   5   2   2   0   5   2   2   0

 !RHF STATE 1.1 Energy              -1053.626369675199
 Nuclear energy                        45.11931993
 One-electron energy                -1546.68499092
 Two-electron energy                  447.93930132
 Virial quotient                       -1.00003118
 !RHF STATE 1.1 Dipole moment           0.00000000     0.00000000     0.00000000
 Dipole moment /Debye                   0.00000000     0.00000000     0.00000000

 Orbital energies:

         1.1          2.1          3.1          4.1          5.1          6.1          7.1
   -118.611739   -12.322859    -9.571828    -1.278439    -0.598379     0.131206     0.154767

         1.2          2.2          3.2          4.2
     -9.571831    -0.592193     0.118800     0.374055

         1.3          2.3          3.3          4.3
     -9.571831    -0.592193     0.118800     0.374055

         1.4          2.4
      0.401497     1.053286

         1.5          2.5          3.5          4.5          5.5          6.5          7.5
   -118.611739   -12.322860    -9.571830    -1.277072    -0.584288     0.112988     0.250201

         1.6          2.6          3.6          4.6
     -9.571831    -0.590226     0.152356     0.463309

         1.7          2.7          3.7          4.7
     -9.571831    -0.590226     0.152356     0.463309

         1.8          2.8
      0.416464     1.070990


 **********************************************************************************************************************************
 DATASETS  * FILE   NREC   LENGTH (MB)   RECORD NAMES
              1      19        9.21       500      610      700      900      950      970     1000      129      960     1100   
                                          VAR    BASINP    GEOM    SYMINP    ZMAT    AOBASIS   BASIS     P2S    ABASIS      S 
                                         1400     1410     1200     1210     1080     1600     1650     1300     1700   
                                           T        V       H0       H01     AOSYM     SMH    MOLCAS    ERIS     OPER   

              2       3        0.31       700     1000     2100   
                                         GEOM     BASIS     RHF  

 PROGRAMS   *        TOTAL        HF       INT   CCSD(T)        HF       INT   CCSD(T)        HF       INT   CCSD(T)        HF
 CPU TIMES  *         6.56      0.01      0.62      0.53      0.02      0.62      0.50      0.03      0.64      0.53      0.01
[...]
 Total number of CSFs:                       28297

 Length of J-op  integral file:               0.00 MB
 Length of K-op  integral file:               0.14 MB
 Length of 3-ext integral record:             0.00 MB

 Memory could be reduced to 1.14 Mwords without degradation in triples

 Integral transformation finished. Total CPU:   0.02 sec, npass=  1  Memory used:   0.42 MW

 Reference energy:                  -1053.62670450

 MP2 singlet pair energy:              -0.26360482
 MP2 triplet pair energy:              -0.15826928
 MP2 correlation energy:               -0.42187410
 MP2 total energy:                  -1054.04857861

 SCS-MP2 correlation energy:           -0.41480445   (PS=  1.200000  PT=  0.333333)
 SCS-MP2 total energy:              -1054.04150895

 ITER.      SQ.NORM     CORR.ENERGY   TOTAL ENERGY   ENERGY CHANGE        DEN1      VAR(S)    VAR(P)  DIIS     TIME
   1      1.14007356    -0.45515610 -1054.08186061    -0.03328200    -0.02604390  0.83D-04  0.13D-02  1  1     0.06
   2      1.14568423    -0.45612239 -1054.08282689    -0.00096629    -0.00784132  0.27D-05  0.33D-04  2  2     0.09
   3      1.14613290    -0.45611728 -1054.08282179     0.00000511    -0.00032335  0.33D-06  0.16D-05  3  3     0.13
   4      1.14623879    -0.45612726 -1054.08283176    -0.00000997    -0.00003666  0.21D-07  0.37D-07  4  4     0.17
   5      1.14625055    -0.45612622 -1054.08283073     0.00000103    -0.00000638  0.15D-08  0.16D-08  5  5     0.20
   6      1.14625174    -0.45612590 -1054.08283041     0.00000032    -0.00000026  0.86D-10  0.77D-10  6  6     0.24
   7      1.14625182    -0.45612596 -1054.08283046    -0.00000005     0.00000001  0.17D-11  0.37D-11  6  1     0.27

 Norm of t1 vector:      0.01106380      S-energy:    -0.00000000      T1 diagnostic:  0.00195582
                                                                       D1 diagnostic:  0.00296345

 Total CPU time for triples:      0.29 sec


 RESULTS
 =======

  Reference energy                  -1053.626704503254
  CCSD singlet pair energy             -0.302564432013
  CCSD triplet pair energy             -0.153561523006
  CCSD correlation energy              -0.456125956587

  Triples (T) contribution             -0.014696887873
  Total correlation energy             -0.470822844460

  CCSD total energy                 -1054.082830459841
  CCSD[T] energy                    -1054.097553791008
  CCSD-T energy                     -1054.097533176631
 !CCSD(T) total energy              -1054.097527347714

 Timing summary (sec):

 STEP                 CPU(USER)    SYS     CPU(TOT)    WALL
 Transformation          0.02      0.01      0.03      0.02
 CCSD iterations         0.25      0.01      0.26      0.27
 Triples                 0.29      0.01      0.30      0.30

 Program statistics:

 Available memory in ccsd:                 7999644
 Min. memory needed in ccsd:                100355
 Max. memory used in ccsd:                  123091
 Max. memory used in cckext:                150987 ( 7 integral passes)



 **********************************************************************************************************************************
 DATASETS  * FILE   NREC   LENGTH (MB)   RECORD NAMES
              1      20       11.90       500      610      700      900      950      970     1000      129      960     1100   
                                          VAR    BASINP    GEOM    SYMINP    ZMAT    AOBASIS   BASIS     P2S    ABASIS      S 
                                         1400     1410     1200     1210     1080     1600     1650     1300     1700     1380   
                                           T        V       H0       H01     AOSYM     SMH    MOLCAS    ERIS     OPER     JKOP   

              2       3        0.31       700     1000     2100   
                                         GEOM     BASIS     RHF  

 PROGRAMS   *        TOTAL   CCSD(T)        HF       INT   CCSD(T)        HF       INT   CCSD(T)        HF       INT   CCSD(T)
 CPU TIMES  *        46.29      0.58      0.01      0.45      0.58      0.02      0.43      0.54      0.01      0.45      0.57
 REAL TIME  *        49.89 SEC
 DISK USED  *        43.63 MB      
 GA USED    *         0.00 MB       (max)       0.00 MB       (current)
 **********************************************************************************************************************************
 SETTING E_VDW          =     -1054.09752735  AU                              
 SETTING E(42)          =     -1054.09752735  AU                              

 DO I                   =        43.00000000   
 SETTING R              =         7.50000000  ANGSTREM                        
 SETTING DIST(43)       =         7.50000000  ANGSTREM                        


 Recomputing integrals since geometry changed

1PROGRAM * SEWARD (Integral evaluation for generally contracted gaussian basis sets)     Author: Roland Lindh, 1990

 Geometry written to block  1 of record 700

 Orientation using atomic masses  
 Molecule type: Linear
 Symmetry elements: X,Y,Z
 Rotational constants:       0.4498105      0.4498105      0.0000000 GHz  (calculated with average atomic masses)

 Point group  D2h 



 ATOMIC COORDINATES

 NR  ATOM    CHARGE       X              Y              Z

   1  AR     18.00    0.000000000    0.000000000   -7.086472993
   2  AR     18.00    0.000000000    0.000000000    7.086472993

 NUCLEAR CHARGE:                   36
 NUMBER OF PRIMITIVE AOS:         168
 NUMBER OF SYMMETRY AOS:          150
 NUMBER OF CONTRACTIONS:          100   (  21Ag  +  12B3u +  12B2u +   5B1g +  21B1u +  12B2g +  12B3g +   5Au  )
 NUMBER OF CORE ORBITALS:          10   (   3Ag  +   1B3u +   1B2u +   0B1g +   3B1u +   1B2g +   1B3g +   0Au  )
 NUMBER OF VALENCE ORBITALS:        8   (   2Ag  +   1B3u +   1B2u +   0B1g +   2B1u +   1B2g +   1B3g +   0Au  )


 NUCLEAR REPULSION ENERGY   22.86045543

 EXTRA SYMMETRY OF AOS IN SYMMETRY 1:   1 1 1 1 1 1 1 1 1 1   1 1 2 1 2 1 2 1 2 1   2
 EXTRA SYMMETRY OF AOS IN SYMMETRY 2:   1 1 1 1 1 1 1 1 1 2   1 2
 EXTRA SYMMETRY OF AOS IN SYMMETRY 3:   1 1 1 1 1 1 1 1 1 2   1 2
 EXTRA SYMMETRY OF AOS IN SYMMETRY 5:   1 1 1 1 1 1 1 1 1 1   1 1 2 1 2 1 2 1 2 1   2
 EXTRA SYMMETRY OF AOS IN SYMMETRY 6:   1 1 1 1 1 1 1 1 1 2   1 2
 EXTRA SYMMETRY OF AOS IN SYMMETRY 7:   1 1 1 1 1 1 1 1 1 2   1 2

 Eigenvalues of metric

         1 0.633E-02 0.218E-01 0.875E-01 0.169E+00 0.169E+00 0.287E+00 0.287E+00 0.293E+00
         2 0.215E-01 0.169E+00 0.279E+00 0.287E+00 0.287E+00 0.777E+00 0.786E+00 0.135E+01
         3 0.215E-01 0.169E+00 0.279E+00 0.287E+00 0.287E+00 0.777E+00 0.786E+00 0.135E+01
         4 0.169E+00 0.287E+00 0.786E+00 0.171E+01 0.204E+01
         5 0.631E-02 0.208E-01 0.871E-01 0.169E+00 0.169E+00 0.260E+00 0.287E+00 0.287E+00
         6 0.213E-01 0.169E+00 0.275E+00 0.287E+00 0.287E+00 0.772E+00 0.786E+00 0.135E+01
         7 0.213E-01 0.169E+00 0.275E+00 0.287E+00 0.287E+00 0.772E+00 0.786E+00 0.135E+01
         8 0.169E+00 0.287E+00 0.786E+00 0.171E+01 0.204E+01


 Contracted 2-electron integrals neglected if value below      1.0D-11
 AO integral compression algorithm  1   Integral accuracy      1.0D-11

     12.059 MB (compressed) written to integral file ( 42.5%)

     Node minimum: 12.059 MB, node maximum: 12.059 MB


 NUMBER OF SORTED TWO-ELECTRON INTEGRALS:    1699305.     BUFFER LENGTH:  32768
 NUMBER OF SEGMENTS:   1  SEGMENT LENGTH:    1699305      RECORD LENGTH: 524288

 Memory used in sort:       2.26 MW

 SORT1 READ     3485072. AND WROTE     1387031. INTEGRALS IN      4 RECORDS. CPU TIME:     0.06 SEC, REAL TIME:     0.07 SEC
 SORT2 READ     1387031. AND WROTE     1699305. INTEGRALS IN     46 RECORDS. CPU TIME:     0.09 SEC, REAL TIME:     0.10 SEC

 FILE SIZES:   FILE 1:     8.8 MBYTE,  FILE 4:    16.8 MBYTE,   TOTAL:     25.6 MBYTE

 OPERATOR DM      FOR CENTER  0  COORDINATES:    0.000000    0.000000    0.000000


 **********************************************************************************************************************************
 DATASETS  * FILE   NREC   LENGTH (MB)   RECORD NAMES
              1      19        8.83       500      610      700      900      950      970     1000      129      960     1100   
                                          VAR    BASINP    GEOM    SYMINP    ZMAT    AOBASIS   BASIS     P2S    ABASIS      S 
                                         1400     1410     1200     1210     1080     1600     1650     1300     1700   
                                           T        V       H0       H01     AOSYM     SMH    MOLCAS    ERIS     OPER   

              2       3        0.31       700     1000     2100   
                                         GEOM     BASIS     RHF  

 PROGRAMS   *        TOTAL       INT   CCSD(T)        HF       INT   CCSD(T)        HF       INT   CCSD(T)        HF       INT
 CPU TIMES  *        46.72      0.43      0.58      0.01      0.45      0.58      0.02      0.43      0.54      0.01      0.45
 REAL TIME  *        50.35 SEC
 DISK USED  *        43.63 MB      
 GA USED    *         0.00 MB       (max)       0.00 MB       (current)
 **********************************************************************************************************************************

1PROGRAM * RHF-SCF (CLOSED SHELL)       Authors: W. Meyer, H.-J. Werner


 NUMBER OF ELECTRONS:      18+   18-
 CONVERGENCE THRESHOLDS:    1.00E-05 (Density)    1.00E-07 (Energy)
 MAX. NUMBER OF ITERATIONS:       60
 INTERPOLATION TYPE:            DIIS
 INTERPOLATION STEPS:              2 (START)      1 (STEP)
 LEVEL SHIFTS:                  0.00 (CLOSED)  0.00 (OPEN) 



 Molecular orbitals read from record     2100.2  Type=RHF/CANONICAL (state 1.1)

 Molecular orbital dump at record        2100.2

 ITERATION    DDIFF          GRAD             ENERGY        2-EL.EN.            DIPOLE MOMENTS         DIIS
    1      0.000D+00      0.000D+00     -1053.62670446    851.345290    0.00000    0.00000    0.00000    0
    2      0.000D+00      0.502D-05     -1053.62670447    851.345278    0.00000    0.00000    0.00000    1
    3      0.772D-05      0.167D-06     -1053.62670447    851.345278    0.00000    0.00000    0.00000    0

 Final occupancy:   5   2   2   0   5   2   2   0

 !RHF STATE 1.1 Energy              -1053.626704467416
 Nuclear energy                        22.86045543
 One-electron energy                -1502.15979896
 Two-electron energy                  425.67263906
 Virial quotient                       -1.00003562
 !RHF STATE 1.1 Dipole moment           0.00000000     0.00000000     0.00000000
 Dipole moment /Debye                   0.00000000     0.00000000     0.00000000

 Orbital energies:

         1.1          2.1          3.1          4.1          5.1          6.1          7.1
   -118.612071   -12.323164    -9.572136    -1.277887    -0.591373     0.112945     0.145359

         1.2          2.2          3.2          4.2
     -9.572136    -0.591367     0.127100     0.408919

         1.3          2.3          3.3          4.3
     -9.572136    -0.591367     0.127100     0.408919

         1.4          2.4
      0.408921     1.061833

         1.5          2.5          3.5          4.5          5.5          6.5          7.5
   -118.612071   -12.323164    -9.572136    -1.277887    -0.591361     0.140343     0.155290

         1.6          2.6          3.6          4.6
     -9.572136    -0.591366     0.132473     0.408927

         1.7          2.7          3.7          4.7
     -9.572136    -0.591366     0.132473     0.408927

         1.8          2.8
      0.408922     1.061833


 **********************************************************************************************************************************
 DATASETS  * FILE   NREC   LENGTH (MB)   RECORD NAMES
              1      19        8.83       500      610      700      900      950      970     1000      129      960     1100   
                                          VAR    BASINP    GEOM    SYMINP    ZMAT    AOBASIS   BASIS     P2S    ABASIS      S 
                                         1400     1410     1200     1210     1080     1600     1650     1300     1700   
                                           T        V       H0       H01     AOSYM     SMH    MOLCAS    ERIS     OPER   

              2       3        0.31       700     1000     2100   
                                         GEOM     BASIS     RHF  

 PROGRAMS   *        TOTAL        HF       INT   CCSD(T)        HF       INT   CCSD(T)        HF       INT   CCSD(T)        HF
 CPU TIMES  *        46.74      0.02      0.43      0.58      0.01      0.45      0.58      0.02      0.43      0.54      0.01
 REAL TIME  *        50.37 SEC
 DISK USED  *        43.63 MB      
 GA USED    *         0.00 MB       (max)       0.00 MB       (current)
 **********************************************************************************************************************************


1PROGRAM * CCSD (Closed-shell coupled cluster)     Authors: C. Hampel, H.-J. Werner, 1991, M. Deegan, P.J. Knowles, 1992


 Convergence thresholds:  THRVAR = 1.00D-08  THRDEN = 1.00D-06

 CCSD(T)     terms to be evaluated (factor= 1.000)


 Number of core orbitals:          10 (   3   1   1   0   3   1   1   0 )
 Number of closed-shell orbitals:   8 (   2   1   1   0   2   1   1   0 )
 Number of external orbitals:      82 (  16  10  10   5  16  10  10   5 )

 Molecular orbitals read from record     2100.2  Type=RHF/CANONICAL (state 1.1)

 Number of N-1 electron functions:               8
 Number of N-2 electron functions:              36
 Number of singly external CSFs:               104
 Number of doubly external CSFs:             28192
 Total number of CSFs:                       28297

 Length of J-op  integral file:               0.00 MB
 Length of K-op  integral file:               0.14 MB
 Length of 3-ext integral record:             0.00 MB

 Memory could be reduced to 1.14 Mwords without degradation in triples

 Integral transformation finished. Total CPU:   0.02 sec, npass=  1  Memory used:   0.42 MW

 Reference energy:                  -1053.62670447

 MP2 singlet pair energy:              -0.26360446
 MP2 triplet pair energy:              -0.15826863
 MP2 correlation energy:               -0.42187308
 MP2 total energy:                  -1054.04857755

 SCS-MP2 correlation energy:           -0.41480360   (PS=  1.200000  PT=  0.333333)
 SCS-MP2 total energy:              -1054.04150807

 ITER.      SQ.NORM     CORR.ENERGY   TOTAL ENERGY   ENERGY CHANGE        DEN1      VAR(S)    VAR(P)  DIIS     TIME
   1      1.14007335    -0.45515530 -1054.08185977    -0.03328222    -0.02604412  0.83D-04  0.13D-02  1  1     0.06
   2      1.14568403    -0.45612159 -1054.08282605    -0.00096628    -0.00784134  0.27D-05  0.33D-04  2  2     0.10
   3      1.14613268    -0.45611648 -1054.08282095     0.00000511    -0.00032334  0.33D-06  0.16D-05  3  3     0.13
   4      1.14623857    -0.45612645 -1054.08283092    -0.00000997    -0.00003666  0.21D-07  0.37D-07  4  4     0.17
   5      1.14625032    -0.45612542 -1054.08282989     0.00000103    -0.00000638  0.15D-08  0.16D-08  5  5     0.21
   6      1.14625151    -0.45612510 -1054.08282957     0.00000032    -0.00000026  0.86D-10  0.77D-10  6  6     0.24
   7      1.14625159    -0.45612515 -1054.08282962    -0.00000005     0.00000001  0.17D-11  0.37D-11  6  1     0.28

 Norm of t1 vector:      0.01106328      S-energy:    -0.00000000      T1 diagnostic:  0.00195573
                                                                       D1 diagnostic:  0.00296335

 Total CPU time for triples:      0.29 sec


 RESULTS
 =======

  Reference energy                  -1053.626704467416
  CCSD singlet pair energy             -0.302564167099
  CCSD triplet pair energy             -0.153560986304
  CCSD correlation energy              -0.456125154856

  Triples (T) contribution             -0.014696775105
  Total correlation energy             -0.470821929961

  CCSD total energy                 -1054.082829622273
  CCSD[T] energy                    -1054.097552840336
  CCSD-T energy                     -1054.097532226761
 !CCSD(T) total energy              -1054.097526397378

 Timing summary (sec):

 STEP                 CPU(USER)    SYS     CPU(TOT)    WALL
 Transformation          0.02      0.01      0.03      0.03
 CCSD iterations         0.26      0.00      0.26      0.26
 Triples                 0.29      0.01      0.30      0.30

 Program statistics:

 Available memory in ccsd:                 7999644
 Min. memory needed in ccsd:                100355
 Max. memory used in ccsd:                  123091
 Max. memory used in cckext:                150987 ( 7 integral passes)



 **********************************************************************************************************************************
 DATASETS  * FILE   NREC   LENGTH (MB)   RECORD NAMES
              1      20       11.89       500      610      700      900      950      970     1000      129      960     1100   
                                          VAR    BASINP    GEOM    SYMINP    ZMAT    AOBASIS   BASIS     P2S    ABASIS      S 
                                         1400     1410     1200     1210     1080     1600     1650     1300     1700     1380   
                                           T        V       H0       H01     AOSYM     SMH    MOLCAS    ERIS     OPER     JKOP   

              2       3        0.31       700     1000     2100   
                                         GEOM     BASIS     RHF  

 PROGRAMS   *        TOTAL   CCSD(T)        HF       INT   CCSD(T)        HF       INT   CCSD(T)        HF       INT   CCSD(T)
 CPU TIMES  *        47.32      0.58      0.02      0.43      0.58      0.01      0.45      0.58      0.02      0.43      0.54
 REAL TIME  *        50.97 SEC
 DISK USED  *        43.63 MB      
 GA USED    *         0.00 MB       (max)       0.00 MB       (current)
 **********************************************************************************************************************************
 SETTING E_VDW          =     -1054.09752640  AU                              
 SETTING E(43)          =     -1054.09752640  AU                              
                                                                                                                                                                                                                                                                

   DIST         E
    3.3   -1054.097111
    3.4   -1054.097504
    3.5   -1054.097740
    3.6   -1054.097870
    3.7   -1054.097931
    3.8   -1054.097950
    3.9   -1054.097943
    4.0   -1054.097921
    4.1   -1054.097892
    4.2   -1054.097860
    4.3   -1054.097828
    4.4   -1054.097798
    4.5   -1054.097769
    4.6   -1054.097743
    4.7   -1054.097719
    4.8   -1054.097697
    4.9   -1054.097677
    5.0   -1054.097660
    5.1   -1054.097644
    5.2   -1054.097630
    5.3   -1054.097618
    5.4   -1054.097607
    5.5   -1054.097597
    5.6   -1054.097588
    5.7   -1054.097581
    5.8   -1054.097574
    5.9   -1054.097568
    6.0   -1054.097562
    6.1   -1054.097558
    6.2   -1054.097553
    6.3   -1054.097550
    6.4   -1054.097546
    6.5   -1054.097543
    6.6   -1054.097541
    6.7   -1054.097538
    6.8   -1054.097536
    6.9   -1054.097534
    7.0   -1054.097532
    7.1   -1054.097531
    7.2   -1054.097530
    7.3   -1054.097528
    7.4   -1054.097527
    7.5   -1054.097526
                                                  

        CCSD(T)         HF-SCF          CCSD(T)         HF-SCF          CCSD(T)         HF-SCF          CCSD(T)         HF-SCF  
  -1054.09752640  -1053.62670447  -1054.09752735  -1053.62670450  -1054.09752841  -1053.62670455  -1054.09752960  -1053.62670460
 **********************************************************************************************************************************
 Variable memory released
