
 Primary working directories    : /mnt/SSD/student17
 Secondary working directories  : /mnt/SSD/student17
 Wavefunction directory         : /home/student17/wfu/
 Main file repository           : /mnt/SSD/student17/

 ARCHNAME  : Linux/x86_64
 FC        : /usr/bin/gfortran
 FCVERSION : 4.7.2
 BLASLIB   : -L/opt/intel/mkl/lib/intel64 -lmkl_intel_ilp64 -lmkl_sequential -lmkl_core
 id        : plat

 Nodes     nprocs
 debserv      1
 ga_uses_ma=false, calling ma_init with nominal heap.
 GA-space will be limited to   8.0 MW (determined by -G option)

 Using customized tuning parameters: mindgm=12; mindgv=24; mindgc=8; mindgr=1; noblas=0; mincuda=1000; minvec=7
 default implementation of scratch files=df  

 ***,Ar-Ar
 
                                                                                 ! basis = aug-cc-pvqz ! basis set
 basis = aug-cc-pvqz
 
 geometry = {ar1; ar2, ar1, r}
 r_min = 3.30, angstrem
 r_max = 7.50, angstrem
 n = 43
 
 do i=1, n
 r = r_min + (r_max - r_min)/(n-1) * (i-1)
 dist(i) = r
 
                                                                                 ! hartree fock
 hf
                                                                                 ! ccsd(t)
 ci
 
 e(i) = energy
 
 dip_x(i) = dmx
 dip_y(i) = dmy
 dip_z(i) = dmz
 
 enddo
 
 table dist, e, dip_x, dip_y, dip_z
 save ar2.tab, new

 Variables initialized (661), CPU time= 0.00 sec
 Commands  initialized (460), CPU time= 0.01 sec, 486 directives.
 Default parameters read. Elapsed time= 0.01 sec

 Checking input...
 Passed
1


                                         ***  PROGRAM SYSTEM MOLPRO  ***
                         Copyright, University College Cardiff Consultants Limited, 2008

                                    Version 2010.1 linked 30 Ноя 2013 12:52


 **********************************************************************************************************************************
 LABEL *   Ar-Ar                                                                         
 Linux-3.2.0-4-amd64/debserv(x86_64) 64 bit mpp version                                  DATE: 03-Jun-17          TIME: 16:01:13  
 **********************************************************************************************************************************

 SHA1:             fd122acbd35ef3619fab5330ac0556b6c1fa4be2
 **********************************************************************************************************************************

 Variable memory set to    8000000 words,  buffer space   230000 words

 SETTING BASIS          =    AUG-CC-PVQZ
 SETTING R_MIN          =         3.30000000  ANGSTREM                        
 SETTING R_MAX          =         7.50000000  ANGSTREM                        
 SETTING N              =        43.00000000                                  

 DO I                   =         1.00000000   
 SETTING R              =         3.30000000  ANGSTREM                        
 SETTING DIST(1)        =         3.30000000  ANGSTREM                        


 Recomputing integrals since basis changed


 Using spherical harmonics

 Library entry AR     S aug-cc-pVQZ          selected for orbital group  1
 Library entry AR     P aug-cc-pVQZ          selected for orbital group  1
 Library entry AR     D aug-cc-pVQZ          selected for orbital group  1
 Library entry AR     F aug-cc-pVQZ          selected for orbital group  1
 Library entry AR     G aug-cc-pVQZ          selected for orbital group  1

1PROGRAM * SEWARD (Integral evaluation for generally contracted gaussian basis sets)     Author: Roland Lindh, 1990

 Geometry written to block  1 of record 700

 Orientation using atomic masses  
 Molecule type: Linear
 Symmetry elements: X,Y,Z
 Rotational constants:       2.3234015      2.3234015      0.0000000 GHz  (calculated with average atomic masses)

 Point group  D2h 



 ATOMIC COORDINATES

 NR  ATOM    CHARGE       X              Y              Z

   1  AR1    18.00    0.000000000    0.000000000   -3.118048117
   2  AR2    18.00    0.000000000    0.000000000    3.118048117

 NUCLEAR CHARGE:                   36
 NUMBER OF PRIMITIVE AOS:         274
 NUMBER OF SYMMETRY AOS:          224
 NUMBER OF CONTRACTIONS:          168   (  33Ag  +  20B3u +  20B2u +  11B1g +  33B1u +  20B2g +  20B3g +  11Au  )
 NUMBER OF CORE ORBITALS:          10   (   3Ag  +   1B3u +   1B2u +   0B1g +   3B1u +   1B2g +   1B3g +   0Au  )
 NUMBER OF VALENCE ORBITALS:        8   (   2Ag  +   1B3u +   1B2u +   0B1g +   2B1u +   1B2g +   1B3g +   0Au  )


 NUCLEAR REPULSION ENERGY   51.95558052

 EXTRA SYMMETRY OF AOS IN SYMMETRY 1:   1 1 1 1 1 1 1 1 1 1   1 1 1 1 2 1 2 1 2 1   2 1 2 1 2 1 2 1 3 2   1 3 2
 EXTRA SYMMETRY OF AOS IN SYMMETRY 2:   1 1 1 1 1 1 1 1 1 1   1 2 1 2 1 2 1 2 1 2
 EXTRA SYMMETRY OF AOS IN SYMMETRY 3:   1 1 1 1 1 1 1 1 1 1   1 2 1 2 1 2 1 2 1 2
 EXTRA SYMMETRY OF AOS IN SYMMETRY 4:   1 1 1 1 1 1 1 1 2 1   2
 EXTRA SYMMETRY OF AOS IN SYMMETRY 5:   1 1 1 1 1 1 1 1 1 1   1 1 1 1 2 1 2 1 2 1   2 1 2 1 2 1 2 1 3 2   1 3 2
 EXTRA SYMMETRY OF AOS IN SYMMETRY 6:   1 1 1 1 1 1 1 1 1 1   1 2 1 2 1 2 1 2 1 2
 EXTRA SYMMETRY OF AOS IN SYMMETRY 7:   1 1 1 1 1 1 1 1 1 1   1 2 1 2 1 2 1 2 1 2
 EXTRA SYMMETRY OF AOS IN SYMMETRY 8:   1 1 1 1 1 1 1 1 2 1   2

 Eigenvalues of metric

         1 0.201E-03 0.666E-03 0.107E-01 0.483E-01 0.566E-01 0.842E-01 0.944E-01 0.103E+00
         2 0.684E-03 0.548E-01 0.816E-01 0.987E-01 0.107E+00 0.289E+00 0.340E+00 0.355E+00
         3 0.684E-03 0.548E-01 0.816E-01 0.987E-01 0.107E+00 0.289E+00 0.340E+00 0.355E+00
         4 0.842E-01 0.103E+00 0.339E+00 0.344E+00 0.400E+00 0.711E+00 0.119E+01 0.166E+01
         5 0.194E-03 0.636E-03 0.430E-02 0.952E-02 0.366E-01 0.725E-01 0.787E-01 0.840E-01
         6 0.678E-03 0.455E-01 0.566E-01 0.825E-01 0.975E-01 0.193E+00 0.273E+00 0.327E+00
         7 0.678E-03 0.455E-01 0.566E-01 0.825E-01 0.975E-01 0.193E+00 0.273E+00 0.327E+00
         8 0.787E-01 0.926E-01 0.330E+00 0.339E+00 0.360E+00 0.686E+00 0.108E+01 0.165E+01


 Contracted 2-electron integrals neglected if value below      1.0D-11
 AO integral compression algorithm  1   Integral accuracy      1.0D-11

     79.954 MB (compressed) written to integral file ( 41.8%)

     Node minimum: 79.954 MB, node maximum: 79.954 MB


 NUMBER OF SORTED TWO-ELECTRON INTEGRALS:   13027854.     BUFFER LENGTH:  32768
 NUMBER OF SEGMENTS:   2  SEGMENT LENGTH:    6670587      RECORD LENGTH: 524288

 Memory used in sort:       7.23 MW

 SORT1 READ    23909504. AND WROTE     9953512. INTEGRALS IN     29 RECORDS. CPU TIME:     0.47 SEC, REAL TIME:     0.56 SEC
 SORT2 READ     9953512. AND WROTE    13027854. INTEGRALS IN    305 RECORDS. CPU TIME:     0.40 SEC, REAL TIME:     0.44 SEC

 FILE SIZES:   FILE 1:    47.9 MBYTE,  FILE 4:   121.7 MBYTE,   TOTAL:    169.5 MBYTE

 OPERATOR DM      FOR CENTER  0  COORDINATES:    0.000000    0.000000    0.000000


 **********************************************************************************************************************************
 DATASETS  * FILE   NREC   LENGTH (MB)   RECORD NAMES
              1      19       47.92       500      610      700      900      950      970     1000      129      960     1100   
                                          VAR    BASINP    GEOM    SYMINP    ZMAT    AOBASIS   BASIS     P2S    ABASIS      S 
                                         1400     1410     1200     1210     1080     1600     1650     1300     1700   
                                           T        V       H0       H01     AOSYM     SMH    MOLCAS    ERIS     OPER   

 PROGRAMS   *        TOTAL       INT
 CPU TIMES  *         4.29      4.25
 REAL TIME  *         4.49 SEC
 DISK USED  *       250.02 MB      
 GA USED    *         0.00 MB       (max)       0.00 MB       (current)
 **********************************************************************************************************************************

1PROGRAM * RHF-SCF (CLOSED SHELL)       Authors: W. Meyer, H.-J. Werner


 NUMBER OF ELECTRONS:      18+   18-
 CONVERGENCE THRESHOLDS:    1.00E-05 (Density)    1.00E-07 (Energy)
 MAX. NUMBER OF ITERATIONS:       60
 INTERPOLATION TYPE:            DIIS
 INTERPOLATION STEPS:              2 (START)      1 (STEP)
 LEVEL SHIFTS:                  0.00 (CLOSED)  0.00 (OPEN) 



 Orbital guess generated from atomic densities. Full valence occupancy:    5   2   2   0   5   2   2   0


 Molecular orbital dump at record        2100.2

 Initial alpha occupancy:   5   2   2   0   5   2   2   0
 Initial beta  occupancy:   5   2   2   0   5   2   2   0
 Wave function symmetry:    1

 ITERATION    DDIFF          GRAD             ENERGY        2-EL.EN.            DIPOLE MOMENTS         DIIS
    1      0.000D+00      0.000D+00     -1053.63136635    909.674048    0.00000    0.00000    0.00000    0
    2      0.000D+00      0.117D-03     -1053.63137941    909.642309    0.00000    0.00000    0.00000    1
    3      0.206D-03      0.302D-04     -1053.63138030    909.649392    0.00000    0.00000    0.00000    2
    4      0.664D-04      0.845D-05     -1053.63138036    909.646427    0.00000    0.00000    0.00000    3
    5      0.165D-04      0.184D-05     -1053.63138036    909.646290    0.00000    0.00000    0.00000    4
    6      0.480D-05      0.322D-06     -1053.63138036    909.646401    0.00000    0.00000    0.00000    0

 Final occupancy:   5   2   2   0   5   2   2   0

 !RHF STATE 1.1 Energy              -1053.631380363137
 Nuclear energy                        51.95558052
 One-electron energy                -1560.41016160
 Two-electron energy                  454.82320071
 Virial quotient                       -0.99998151
 !RHF STATE 1.1 Dipole moment           0.00000000     0.00000000     0.00000000
 Dipole moment /Debye                   0.00000000     0.00000000     0.00000000

 Orbital energies:

         1.1          2.1          3.1          4.1          5.1          6.1          7.1
   -118.609145   -12.321129    -9.570410    -1.279649    -0.608343     0.108644     0.138983

         1.2          2.2          3.2          4.2
     -9.570407    -0.593501     0.102130     0.290443

         1.3          2.3          3.3          4.3
     -9.570407    -0.593501     0.102130     0.290443

         1.4          2.4
      0.293450     0.769626

         1.5          2.5          3.5          4.5          5.5          6.5          7.5
   -118.609145   -12.321131    -9.570410    -1.274642    -0.573666     0.087021     0.232260

         1.6          2.6          3.6          4.6
     -9.570408    -0.587788     0.132609     0.417593

         1.7          2.7          3.7          4.7
     -9.570408    -0.587788     0.132609     0.417593

         1.8          2.8
      0.339226     0.790781


 **********************************************************************************************************************************
 DATASETS  * FILE   NREC   LENGTH (MB)   RECORD NAMES
              1      19       47.92       500      610      700      900      950      970     1000      129      960     1100   
                                          VAR    BASINP    GEOM    SYMINP    ZMAT    AOBASIS   BASIS     P2S    ABASIS      S 
                                         1400     1410     1200     1210     1080     1600     1650     1300     1700   
                                           T        V       H0       H01     AOSYM     SMH    MOLCAS    ERIS     OPER   

              2       3        0.38       700     1000     2100   
                                         GEOM     BASIS     RHF  

 PROGRAMS   *        TOTAL        HF       INT
 CPU TIMES  *         4.41      0.12      4.25
 REAL TIME  *         4.64 SEC
 DISK USED  *       250.02 MB      
 GA USED    *         0.00 MB       (max)       0.00 MB       (current)
 **********************************************************************************************************************************

1PROGRAM * CI (Multireference internally contracted CI)     Authors: H.-J. Werner, P.J. Knowles, 1987


 Convergence thresholds:  THRVAR = 1.00D-08  THRDEN = 1.00D-06

 Number of optimized states:  1  Roots:   1
 Number of reference states:  1  Roots:   1

 Reference symmetry:                   1   Singlet 
 Number of electrons:                 36
 Maximum number of shells:             3
 Maximum number of spin couplings:     2

 Reference space:        1 conf        1 CSFs
 N elec internal:        1 conf        1 CSFs
 N-1 el internal:        8 conf        8 CSFs
 N-2 el internal:       36 conf       64 CSFs

 Number of electrons in valence space:                     16
 Maximum number of open shell orbitals in reference space:  0
 Maximum number of open shell orbitals in internal spaces:  4


 Number of core orbitals:          10 (   3   1   1   0   3   1   1   0 )
 Number of closed-shell orbitals:   8 (   2   1   1   0   2   1   1   0 )
 Number of external orbitals:     150 (  28  18  18  11  28  18  18  11 )

 Molecular orbitals read from record     2100.2  Type=RHF/CANONICAL (state 1.1)

 Integral transformation finished. Total CPU:   0.06 sec, npass=  1  Memory used:   0.21 MW

 Number of p-space configurations:   1

 Reference wavefunction optimized for reference space (refopt=1)

 State     Reference Energy 
   1       -1053.63138036

 Number of blocks in overlap matrix:    64   Smallest eigenvalue:  0.10D+01
 Number of N-2 electron functions:      64
 Number of N-1 electron functions:       8

 Number of internal configurations:                    1
 Number of singly external configurations:           184
 Number of doubly external configurations:         92912
 Total number of contracted configurations:        93097
 Total number of uncontracted configurations:      93097

 Diagonal Coupling coefficients finished.               Storage:    4075 words, CPU-Time:      0.00 seconds.
 Energy denominators for pairs finished in 1 passes.    Storage:   50107 words, CPU-time:      0.00 seconds.

  ITER. STATE  ROOT     SQ.NORM     CORR.ENERGY   TOTAL ENERGY   ENERGY CHANGE       DEN1      VAR(S)    VAR(P)      TIME
    1     1     1     1.00000000     0.00000000 -1053.63138036    -0.00000000    -0.49188122  0.76D-11  0.15D+00     0.08
    2     1     1     1.12081385    -0.44585097 -1054.07723133    -0.44585097    -0.00584903  0.81D-04  0.13D-02     0.26
    3     1     1     1.11995044    -0.45216258 -1054.08354294    -0.00631161    -0.00013788  0.31D-05  0.36D-04     0.42
    4     1     1     1.12035185    -0.45229525 -1054.08367561    -0.00013267    -0.00000755  0.89D-07  0.19D-05     0.60
    5     1     1     1.12051735    -0.45230295 -1054.08368332    -0.00000771    -0.00000032  0.19D-08  0.75D-07     0.76
    6     1     1     1.12053819    -0.45230330 -1054.08368366    -0.00000035    -0.00000001  0.81D-09  0.26D-08     0.92


 =====================================
 Analysis of CPU times by interactions
 =====================================

       I      S      P

 I   0.0%
 S   0.0%   0.0%
 P   0.0%   0.0%  19.6%

 Initialization:   8.7%
 Other:           71.7%

 Total CPU:        0.9 seconds
 =====================================



 Reference coefficients greater than 0.0500000
 =============================================
 22222222           0.9446842



 RESULTS FOR STATE 1.1
 =====================

 Coefficient of reference function:   C(0) = 0.94468424 (fixed)   0.94468424 (relaxed)

 Energy contributions of configuration classes

 CLASS          SQ.NORM        ECORR1        ECORR2
 +++++++++++++++++++++++++++++++++++++++++++++++++++
 Internals    0.00000000    0.00000000    0.00000000
 Singles      0.00010864    0.00000001   -0.00004395
 Pairs        0.12042955   -0.45230331   -0.45225935
 Total        1.12053819   -0.45230330   -0.45230330
 +++++++++++++++++++++++++++++++++++++++++++++++++++


 Reference energy                   -1053.63138036
 Nuclear energy                        51.95558052
 Kinetic energy                      1053.98293990
 One electron energy                -1560.30882679
 Two electron energy                  454.26956261
 Virial quotient                       -1.00009558
 Correlation energy                    -0.45230330
 !CI(SD) STATE 1.1 Energy           -1054.083683663019

 !CI(SD) STATE 1.1 Dipole moment        0.00000000     0.00000000     0.00000000
 Dipole moment /Debye                   0.00000000     0.00000000     0.00000000

 Cluster corrected energies         -1054.13820348 (Davidson, fixed reference)
 Cluster corrected energies         -1054.13820348 (Davidson, relaxed reference)

 Cluster corrected energies         -1054.13602948 (Pople, fixed reference)
 Cluster corrected energies         -1054.13602948 (Pople, relaxed reference)



 **********************************************************************************************************************************
 DATASETS  * FILE   NREC   LENGTH (MB)   RECORD NAMES
              1      20       49.64       500      610      700      900      950      970     1000      129      960     1100   
                                          VAR    BASINP    GEOM    SYMINP    ZMAT    AOBASIS   BASIS     P2S    ABASIS      S 
                                         1400     1410     1200     1210     1080     1600     1650     1300     1700     1380   
                                           T        V       H0       H01     AOSYM     SMH    MOLCAS    ERIS     OPER     JKOP   

              2       3        0.38       700     1000     2100   
                                         GEOM     BASIS     RHF  

 PROGRAMS   *        TOTAL        CI        HF       INT
 CPU TIMES  *         5.36      0.94      0.12      4.25
 REAL TIME  *         5.66 SEC
 DISK USED  *       250.02 MB      
 GA USED    *         0.00 MB       (max)       0.00 MB       (current)
 **********************************************************************************************************************************
 SETTING E(1)           =     -1054.08368366  AU                              
 SETTING DIP_X(1)       =         0.00000000  AU                              
 SETTING DIP_Y(1)       =         0.00000000  AU                              
 SETTING DIP_Z(1)       =         0.00000000  AU                              

 DO I                   =         2.00000000   
 SETTING R              =         3.40000000  ANGSTREM                        
 SETTING DIST(2)        =         3.40000000  ANGSTREM                        


 Recomputing integrals since geometry changed

1PROGRAM * SEWARD (Integral evaluation for generally contracted gaussian basis sets)     Author: Roland Lindh, 1990

 Geometry written to block  1 of record 700

 Orientation using atomic masses  
 Molecule type: Linear
 Symmetry elements: X,Y,Z
 Rotational constants:       2.1887407      2.1887407      0.0000000 GHz  (calculated with average atomic masses)

 Point group  D2h 



 ATOMIC COORDINATES

 NR  ATOM    CHARGE       X              Y              Z

   1  AR1    18.00    0.000000000    0.000000000   -3.212534423
   2  AR2    18.00    0.000000000    0.000000000    3.212534423

 NUCLEAR CHARGE:                   36
 NUMBER OF PRIMITIVE AOS:         274
 NUMBER OF SYMMETRY AOS:          224
 NUMBER OF CONTRACTIONS:          168   (  33Ag  +  20B3u +  20B2u +  11B1g +  33B1u +  20B2g +  20B3g +  11Au  )
 NUMBER OF CORE ORBITALS:          10   (   3Ag  +   1B3u +   1B2u +   0B1g +   3B1u +   1B2g +   1B3g +   0Au  )
 NUMBER OF VALENCE ORBITALS:        8   (   2Ag  +   1B3u +   1B2u +   0B1g +   2B1u +   1B2g +   1B3g +   0Au  )


 NUCLEAR REPULSION ENERGY   50.42747521

 EXTRA SYMMETRY OF AOS IN SYMMETRY 1:   1 1 1 1 1 1 1 1 1 1   1 1 1 1 2 1 2 1 2 1   2 1 2 1 2 1 2 1 3 2   1 3 2
 EXTRA SYMMETRY OF AOS IN SYMMETRY 2:   1 1 1 1 1 1 1 1 1 1   1 2 1 2 1 2 1 2 1 2
 EXTRA SYMMETRY OF AOS IN SYMMETRY 3:   1 1 1 1 1 1 1 1 1 1   1 2 1 2 1 2 1 2 1 2
 EXTRA SYMMETRY OF AOS IN SYMMETRY 4:   1 1 1 1 1 1 1 1 2 1   2
 EXTRA SYMMETRY OF AOS IN SYMMETRY 5:   1 1 1 1 1 1 1 1 1 1   1 1 1 1 2 1 2 1 2 1   2 1 2 1 2 1 2 1 3 2   1 3 2
 EXTRA SYMMETRY OF AOS IN SYMMETRY 6:   1 1 1 1 1 1 1 1 1 1   1 2 1 2 1 2 1 2 1 2
 EXTRA SYMMETRY OF AOS IN SYMMETRY 7:   1 1 1 1 1 1 1 1 1 1   1 2 1 2 1 2 1 2 1 2
 EXTRA SYMMETRY OF AOS IN SYMMETRY 8:   1 1 1 1 1 1 1 1 2 1   2

 Eigenvalues of metric

         1 0.201E-03 0.670E-03 0.108E-01 0.482E-01 0.609E-01 0.841E-01 0.942E-01 0.102E+00
         2 0.685E-03 0.547E-01 0.821E-01 0.986E-01 0.107E+00 0.288E+00 0.340E+00 0.351E+00
         3 0.685E-03 0.547E-01 0.821E-01 0.986E-01 0.107E+00 0.288E+00 0.340E+00 0.351E+00
         4 0.841E-01 0.102E+00 0.339E+00 0.343E+00 0.399E+00 0.708E+00 0.118E+01 0.166E+01
         5 0.195E-03 0.637E-03 0.485E-02 0.112E-01 0.372E-01 0.761E-01 0.791E-01 0.846E-01
         6 0.679E-03 0.467E-01 0.586E-01 0.851E-01 0.976E-01 0.198E+00 0.282E+00 0.332E+00
         7 0.679E-03 0.467E-01 0.586E-01 0.851E-01 0.976E-01 0.198E+00 0.282E+00 0.332E+00
         8 0.791E-01 0.938E-01 0.333E+00 0.339E+00 0.362E+00 0.689E+00 0.109E+01 0.166E+01


 Contracted 2-electron integrals neglected if value below      1.0D-11
 AO integral compression algorithm  1   Integral accuracy      1.0D-11

     79.692 MB (compressed) written to integral file ( 41.7%)

     Node minimum: 79.692 MB, node maximum: 79.692 MB


 NUMBER OF SORTED TWO-ELECTRON INTEGRALS:   13027854.     BUFFER LENGTH:  32768
 NUMBER OF SEGMENTS:   2  SEGMENT LENGTH:    6670587      RECORD LENGTH: 524288

 Memory used in sort:       7.23 MW

 SORT1 READ    23909504. AND WROTE     9953130. INTEGRALS IN     29 RECORDS. CPU TIME:     0.44 SEC, REAL TIME:     0.56 SEC
 SORT2 READ     9953130. AND WROTE    13027854. INTEGRALS IN    304 RECORDS. CPU TIME:     0.32 SEC, REAL TIME:     0.38 SEC

 FILE SIZES:   FILE 1:    47.8 MBYTE,  FILE 4:   121.7 MBYTE,   TOTAL:    169.5 MBYTE

 OPERATOR DM      FOR CENTER  0  COORDINATES:    0.000000    0.000000    0.000000


 **********************************************************************************************************************************
 DATASETS  * FILE   NREC   LENGTH (MB)   RECORD NAMES
              1      19       47.83       500      610      700      900      950      970     1000      129      960     1100   
                                          VAR    BASINP    GEOM    SYMINP    ZMAT    AOBASIS   BASIS     P2S    ABASIS      S 
                                         1400     1410     1200     1210     1080     1600     1650     1300     1700   
                                           T        V       H0       H01     AOSYM     SMH    MOLCAS    ERIS     OPER   

              2       3        0.38       700     1000     2100   
                                         GEOM     BASIS     RHF  

 PROGRAMS   *        TOTAL       INT        CI        HF       INT
 CPU TIMES  *         9.44      4.08      0.94      0.12      4.25
 REAL TIME  *        10.00 SEC
 DISK USED  *       250.05 MB      
 GA USED    *         0.00 MB       (max)       0.00 MB       (current)
 **********************************************************************************************************************************

1PROGRAM * RHF-SCF (CLOSED SHELL)       Authors: W. Meyer, H.-J. Werner


 NUMBER OF ELECTRONS:      18+   18-
 CONVERGENCE THRESHOLDS:    1.00E-05 (Density)    1.00E-07 (Energy)
 MAX. NUMBER OF ITERATIONS:       60
 INTERPOLATION TYPE:            DIIS
 INTERPOLATION STEPS:              2 (START)      1 (STEP)
 LEVEL SHIFTS:                  0.00 (CLOSED)  0.00 (OPEN) 



 Molecular orbitals read from record     2100.2  Type=RHF/CANONICAL (state 1.1)

 Molecular orbital dump at record        2100.2

 ITERATION    DDIFF          GRAD             ENERGY        2-EL.EN.            DIPOLE MOMENTS         DIIS
    1      0.000D+00      0.000D+00     -1053.63204582    906.562729    0.00000    0.00000    0.00000    0
    2      0.000D+00      0.109D-03     -1053.63205459    906.582555    0.00000    0.00000    0.00000    1
    3      0.204D-03      0.163D-04     -1053.63205482    906.576099    0.00000    0.00000    0.00000    2
    4      0.377D-04      0.372D-05     -1053.63205483    906.578014    0.00000    0.00000    0.00000    3
    5      0.787D-05      0.707D-06     -1053.63205483    906.577905    0.00000    0.00000    0.00000    0

 Final occupancy:   5   2   2   0   5   2   2   0

 !RHF STATE 1.1 Energy              -1053.632054830815
 Nuclear energy                        50.42747521
 One-electron energy                -1557.34848231
 Two-electron energy                  453.28895226
 Virial quotient                       -0.99998863
 !RHF STATE 1.1 Dipole moment           0.00000000     0.00000000     0.00000000
 Dipole moment /Debye                   0.00000000     0.00000000     0.00000000

 Orbital energies:

         1.1          2.1          3.1          4.1          5.1          6.1          7.1
   -118.609477   -12.321408    -9.570691    -1.279122    -0.605528     0.108697     0.137735

         1.2          2.2          3.2          4.2
     -9.570691    -0.593039     0.101756     0.288914

         1.3          2.3          3.3          4.3
     -9.570691    -0.593039     0.101756     0.288914

         1.4          2.4
      0.294839     0.769205

         1.5          2.5          3.5          4.5          5.5          6.5          7.5
   -118.609477   -12.321410    -9.570692    -1.275258    -0.576532     0.087882     0.229509

         1.6          2.6          3.6          4.6
     -9.570691    -0.588426     0.132233     0.412639

         1.7          2.7          3.7          4.7
     -9.570691    -0.588426     0.132233     0.412639

         1.8          2.8
      0.337022     0.790323


 **********************************************************************************************************************************
 DATASETS  * FILE   NREC   LENGTH (MB)   RECORD NAMES
              1      19       47.83       500      610      700      900      950      970     1000      129      960     1100   
                                          VAR    BASINP    GEOM    SYMINP    ZMAT    AOBASIS   BASIS     P2S    ABASIS      S 
                                         1400     1410     1200     1210     1080     1600     1650     1300     1700   
                                           T        V       H0       H01     AOSYM     SMH    MOLCAS    ERIS     OPER   

              2       3        0.38       700     1000     2100   
                                         GEOM     BASIS     RHF  

 PROGRAMS   *        TOTAL        HF       INT        CI        HF       INT
 CPU TIMES  *         9.54      0.09      4.08      0.94      0.12      4.25
 REAL TIME  *        10.10 SEC
 DISK USED  *       250.05 MB      
 GA USED    *         0.00 MB       (max)       0.00 MB       (current)
 **********************************************************************************************************************************

1PROGRAM * CI (Multireference internally contracted CI)     Authors: H.-J. Werner, P.J. Knowles, 1987


 Convergence thresholds:  THRVAR = 1.00D-08  THRDEN = 1.00D-06

 Number of optimized states:  1  Roots:   1
 Number of reference states:  1  Roots:   1

 Reference symmetry:                   1   Singlet 
 Number of electrons:                 36
 Maximum number of shells:             3
 Maximum number of spin couplings:     2

 Reference space:        1 conf        1 CSFs
 N elec internal:        1 conf        1 CSFs
 N-1 el internal:        8 conf        8 CSFs
 N-2 el internal:       36 conf       64 CSFs

 Number of electrons in valence space:                     16
 Maximum number of open shell orbitals in reference space:  0
 Maximum number of open shell orbitals in internal spaces:  4


 Number of core orbitals:          10 (   3   1   1   0   3   1   1   0 )
 Number of closed-shell orbitals:   8 (   2   1   1   0   2   1   1   0 )
 Number of external orbitals:     150 (  28  18  18  11  28  18  18  11 )

 Molecular orbitals read from record     2100.2  Type=RHF/CANONICAL (state 1.1)

 Integral transformation finished. Total CPU:   0.06 sec, npass=  1  Memory used:   0.21 MW

 Number of p-space configurations:   1

 Reference wavefunction optimized for reference space (refopt=1)

 State     Reference Energy 
   1       -1053.63205483

 Number of blocks in overlap matrix:    64   Smallest eigenvalue:  0.10D+01
 Number of N-2 electron functions:      64
 Number of N-1 electron functions:       8

 Number of internal configurations:                    1
 Number of singly external configurations:           184
 Number of doubly external configurations:         92912
 Total number of contracted configurations:        93097
 Total number of uncontracted configurations:      93097

 Diagonal Coupling coefficients finished.               Storage:    4075 words, CPU-Time:      0.00 seconds.
 Energy denominators for pairs finished in 1 passes.    Storage:   50107 words, CPU-time:      0.00 seconds.

  ITER. STATE  ROOT     SQ.NORM     CORR.ENERGY   TOTAL ENERGY   ENERGY CHANGE       DEN1      VAR(S)    VAR(P)      TIME
    1     1     1     1.00000000     0.00000000 -1053.63205483    -0.00000000    -0.49114116  0.51D-10  0.15D+00     0.09
    2     1     1     1.12075289    -0.44563269 -1054.07768752    -0.44563269    -0.00582293  0.81D-04  0.13D-02     0.26
    3     1     1     1.11991949    -0.45191940 -1054.08397423    -0.00628670    -0.00013945  0.29D-05  0.36D-04     0.44
    4     1     1     1.12031541    -0.45205304 -1054.08410787    -0.00013364    -0.00000771  0.93D-07  0.19D-05     0.63
    5     1     1     1.12048282    -0.45206091 -1054.08411574    -0.00000787    -0.00000033  0.18D-08  0.76D-07     0.79
    6     1     1     1.12050414    -0.45206127 -1054.08411610    -0.00000035    -0.00000001  0.79D-09  0.26D-08     0.95


 =====================================
 Analysis of CPU times by interactions
 =====================================

       I      S      P

 I   0.0%
 S   0.0%   0.0%
 P   0.0%   0.0%  18.9%

 Initialization:   9.5%
 Other:           71.6%

 Total CPU:        1.0 seconds
 =====================================



 Reference coefficients greater than 0.0500000
 =============================================
 22222222           0.9446986



 RESULTS FOR STATE 1.1
 =====================

 Coefficient of reference function:   C(0) = 0.94469859 (fixed)   0.94469859 (relaxed)

 Energy contributions of configuration classes

 CLASS          SQ.NORM        ECORR1        ECORR2
 +++++++++++++++++++++++++++++++++++++++++++++++++++
 Internals    0.00000000    0.00000000   -0.00000000
 Singles      0.00010890   -0.00000001   -0.00004405
 Pairs        0.12039525   -0.45206125   -0.45201721
 Total        1.12050414   -0.45206127   -0.45206127
 +++++++++++++++++++++++++++++++++++++++++++++++++++


 Reference energy                   -1053.63205483
 Nuclear energy                        50.42747521
 Kinetic energy                      1053.97744778
 One electron energy                -1557.24910307
 Two electron energy                  452.73751176
 Virial quotient                       -1.00010121
 Correlation energy                    -0.45206127
 !CI(SD) STATE 1.1 Energy           -1054.084116096397

 !CI(SD) STATE 1.1 Dipole moment        0.00000000     0.00000000     0.00000000
 Dipole moment /Debye                   0.00000000     0.00000000     0.00000000

 Cluster corrected energies         -1054.13859135 (Davidson, fixed reference)
 Cluster corrected energies         -1054.13859135 (Davidson, relaxed reference)

 Cluster corrected energies         -1054.13641772 (Pople, fixed reference)
 Cluster corrected energies         -1054.13641772 (Pople, relaxed reference)



 **********************************************************************************************************************************
 DATASETS  * FILE   NREC   LENGTH (MB)   RECORD NAMES
              1      20       49.55       500      610      700      900      950      970     1000      129      960     1100   
                                          VAR    BASINP    GEOM    SYMINP    ZMAT    AOBASIS   BASIS     P2S    ABASIS      S 
                                         1400     1410     1200     1210     1080     1600     1650     1300     1700     1380   
                                           T        V       H0       H01     AOSYM     SMH    MOLCAS    ERIS     OPER     JKOP   

              2       3        0.38       700     1000     2100   
                                         GEOM     BASIS     RHF  

 PROGRAMS   *        TOTAL        CI        HF       INT        CI        HF       INT
 CPU TIMES  *        10.50      0.97      0.09      4.08      0.94      0.12      4.25
 REAL TIME  *        11.16 SEC
 DISK USED  *       250.05 MB      
 GA USED    *         0.00 MB       (max)       0.00 MB       (current)
 **********************************************************************************************************************************
 SETTING E(2)           =     -1054.08411610  AU                              
 SETTING DIP_X(2)       =         0.00000000  AU                              
 SETTING DIP_Y(2)       =         0.00000000  AU                              
 SETTING DIP_Z(2)       =         0.00000000  AU                              

 DO I                   =         3.00000000   
 SETTING R              =         3.50000000  ANGSTREM                        
 SETTING DIST(3)        =         3.50000000  ANGSTREM                        


 Recomputing integrals since geometry changed

1PROGRAM * SEWARD (Integral evaluation for generally contracted gaussian basis sets)     Author: Roland Lindh, 1990

 Geometry written to block  1 of record 700

 Orientation using atomic masses  
 Molecule type: Linear
 Symmetry elements: X,Y,Z
 Rotational constants:       2.0654565      2.0654565      0.0000000 GHz  (calculated with average atomic masses)

 Point group  D2h 



 ATOMIC COORDINATES

 NR  ATOM    CHARGE       X              Y              Z

   1  AR1    18.00    0.000000000    0.000000000   -3.307020730
   2  AR2    18.00    0.000000000    0.000000000    3.307020730

 NUCLEAR CHARGE:                   36
 NUMBER OF PRIMITIVE AOS:         274
 NUMBER OF SYMMETRY AOS:          224
 NUMBER OF CONTRACTIONS:          168   (  33Ag  +  20B3u +  20B2u +  11B1g +  33B1u +  20B2g +  20B3g +  11Au  )
 NUMBER OF CORE ORBITALS:          10   (   3Ag  +   1B3u +   1B2u +   0B1g +   3B1u +   1B2g +   1B3g +   0Au  )
 NUMBER OF VALENCE ORBITALS:        8   (   2Ag  +   1B3u +   1B2u +   0B1g +   2B1u +   1B2g +   1B3g +   0Au  )


 NUCLEAR REPULSION ENERGY   48.98669020

 EXTRA SYMMETRY OF AOS IN SYMMETRY 1:   1 1 1 1 1 1 1 1 1 1   1 1 1 1 2 1 2 1 2 1   2 1 2 1 2 1 2 1 3 2   1 3 2
 EXTRA SYMMETRY OF AOS IN SYMMETRY 2:   1 1 1 1 1 1 1 1 1 1   1 2 1 2 1 2 1 2 1 2
 EXTRA SYMMETRY OF AOS IN SYMMETRY 3:   1 1 1 1 1 1 1 1 1 1   1 2 1 2 1 2 1 2 1 2
 EXTRA SYMMETRY OF AOS IN SYMMETRY 4:   1 1 1 1 1 1 1 1 2 1   2
 EXTRA SYMMETRY OF AOS IN SYMMETRY 5:   1 1 1 1 1 1 1 1 1 1   1 1 1 1 2 1 2 1 2 1   2 1 2 1 2 1 2 1 3 2   1 3 2
 EXTRA SYMMETRY OF AOS IN SYMMETRY 6:   1 1 1 1 1 1 1 1 1 1   1 2 1 2 1 2 1 2 1 2
 EXTRA SYMMETRY OF AOS IN SYMMETRY 7:   1 1 1 1 1 1 1 1 1 1   1 2 1 2 1 2 1 2 1 2
 EXTRA SYMMETRY OF AOS IN SYMMETRY 8:   1 1 1 1 1 1 1 1 2 1   2

 Eigenvalues of metric

         1 0.201E-03 0.673E-03 0.109E-01 0.482E-01 0.647E-01 0.841E-01 0.940E-01 0.102E+00
         2 0.685E-03 0.547E-01 0.825E-01 0.985E-01 0.106E+00 0.288E+00 0.339E+00 0.347E+00
         3 0.685E-03 0.547E-01 0.825E-01 0.985E-01 0.106E+00 0.288E+00 0.339E+00 0.347E+00
         4 0.841E-01 0.102E+00 0.339E+00 0.341E+00 0.397E+00 0.706E+00 0.117E+01 0.166E+01
         5 0.196E-03 0.640E-03 0.534E-02 0.133E-01 0.378E-01 0.793E-01 0.795E-01 0.850E-01
         6 0.679E-03 0.475E-01 0.607E-01 0.874E-01 0.978E-01 0.202E+00 0.291E+00 0.335E+00
         7 0.679E-03 0.475E-01 0.607E-01 0.874E-01 0.978E-01 0.202E+00 0.291E+00 0.335E+00
         8 0.795E-01 0.947E-01 0.335E+00 0.339E+00 0.364E+00 0.692E+00 0.110E+01 0.166E+01


 Contracted 2-electron integrals neglected if value below      1.0D-11
 AO integral compression algorithm  1   Integral accuracy      1.0D-11

     79.430 MB (compressed) written to integral file ( 41.6%)

     Node minimum: 79.430 MB, node maximum: 79.430 MB


 NUMBER OF SORTED TWO-ELECTRON INTEGRALS:   13027854.     BUFFER LENGTH:  32768
 NUMBER OF SEGMENTS:   2  SEGMENT LENGTH:    6670587      RECORD LENGTH: 524288

 Memory used in sort:       7.23 MW

 SORT1 READ    23909504. AND WROTE     9952859. INTEGRALS IN     29 RECORDS. CPU TIME:     0.45 SEC, REAL TIME:     0.57 SEC
 SORT2 READ     9952859. AND WROTE    13027854. INTEGRALS IN    303 RECORDS. CPU TIME:     0.34 SEC, REAL TIME:     0.41 SEC

 FILE SIZES:   FILE 1:    47.7 MBYTE,  FILE 4:   121.7 MBYTE,   TOTAL:    169.4 MBYTE

 OPERATOR DM      FOR CENTER  0  COORDINATES:    0.000000    0.000000    0.000000


 **********************************************************************************************************************************
 DATASETS  * FILE   NREC   LENGTH (MB)   RECORD NAMES
              1      19       47.74       500      610      700      900      950      970     1000      129      960     1100   
                                          VAR    BASINP    GEOM    SYMINP    ZMAT    AOBASIS   BASIS     P2S    ABASIS      S 
                                         1400     1410     1200     1210     1080     1600     1650     1300     1700   
                                           T        V       H0       H01     AOSYM     SMH    MOLCAS    ERIS     OPER   

              2       3        0.38       700     1000     2100   
                                         GEOM     BASIS     RHF  

 PROGRAMS   *        TOTAL       INT        CI        HF       INT        CI        HF       INT
 CPU TIMES  *        14.64      4.13      0.97      0.09      4.08      0.94      0.12      4.25
 REAL TIME  *        15.53 SEC
 DISK USED  *       250.05 MB      
 GA USED    *         0.00 MB       (max)       0.00 MB       (current)
 **********************************************************************************************************************************

1PROGRAM * RHF-SCF (CLOSED SHELL)       Authors: W. Meyer, H.-J. Werner


 NUMBER OF ELECTRONS:      18+   18-
 CONVERGENCE THRESHOLDS:    1.00E-05 (Density)    1.00E-07 (Energy)
 MAX. NUMBER OF ITERATIONS:       60
 INTERPOLATION TYPE:            DIIS
 INTERPOLATION STEPS:              2 (START)      1 (STEP)
 LEVEL SHIFTS:                  0.00 (CLOSED)  0.00 (OPEN) 



 Molecular orbitals read from record     2100.2  Type=RHF/CANONICAL (state 1.1)

 Molecular orbital dump at record        2100.2

 ITERATION    DDIFF          GRAD             ENERGY        2-EL.EN.            DIPOLE MOMENTS         DIIS
    1      0.000D+00      0.000D+00     -1053.63252173    903.674548    0.00000    0.00000    0.00000    0
    2      0.000D+00      0.901D-04     -1053.63252761    903.690536    0.00000    0.00000    0.00000    1
    3      0.166D-03      0.130D-04     -1053.63252776    903.685277    0.00000    0.00000    0.00000    2
    4      0.298D-04      0.293D-05     -1053.63252776    903.686815    0.00000    0.00000    0.00000    3
    5      0.632D-05      0.519D-06     -1053.63252776    903.686724    0.00000    0.00000    0.00000    0

 Final occupancy:   5   2   2   0   5   2   2   0

 !RHF STATE 1.1 Energy              -1053.632527759877
 Nuclear energy                        48.98669020
 One-electron energy                -1554.46258007
 Two-electron energy                  451.84336211
 Virial quotient                       -0.99999380
 !RHF STATE 1.1 Dipole moment           0.00000000     0.00000000     0.00000000
 Dipole moment /Debye                   0.00000000     0.00000000     0.00000000

 Orbital energies:

         1.1          2.1          3.1          4.1          5.1          6.1          7.1
   -118.609730   -12.321622    -9.570907    -1.278723    -0.603157     0.108699     0.136421

         1.2          2.2          3.2          4.2
     -9.570908    -0.592668     0.101400     0.287562

         1.3          2.3          3.3          4.3
     -9.570908    -0.592668     0.101400     0.287562

         1.4          2.4
      0.296220     0.768933

         1.5          2.5          3.5          4.5          5.5          6.5          7.5
   -118.609730   -12.321624    -9.570907    -1.275742    -0.578934     0.088750     0.226733

         1.6          2.6          3.6          4.6
     -9.570908    -0.588942     0.131842     0.407568

         1.7          2.7          3.7          4.7
     -9.570908    -0.588942     0.131842     0.407568

         1.8          2.8
      0.334956     0.789873


 **********************************************************************************************************************************
 DATASETS  * FILE   NREC   LENGTH (MB)   RECORD NAMES
              1      19       47.74       500      610      700      900      950      970     1000      129      960     1100   
                                          VAR    BASINP    GEOM    SYMINP    ZMAT    AOBASIS   BASIS     P2S    ABASIS      S 
                                         1400     1410     1200     1210     1080     1600     1650     1300     1700   
                                           T        V       H0       H01     AOSYM     SMH    MOLCAS    ERIS     OPER   

              2       3        0.38       700     1000     2100   
                                         GEOM     BASIS     RHF  

 PROGRAMS   *        TOTAL        HF       INT        CI        HF       INT        CI        HF       INT
 CPU TIMES  *        14.73      0.09      4.13      0.97      0.09      4.08      0.94      0.12      4.25
 REAL TIME  *        15.64 SEC
 DISK USED  *       250.05 MB      
 GA USED    *         0.00 MB       (max)       0.00 MB       (current)
 **********************************************************************************************************************************

1PROGRAM * CI (Multireference internally contracted CI)     Authors: H.-J. Werner, P.J. Knowles, 1987


 Convergence thresholds:  THRVAR = 1.00D-08  THRDEN = 1.00D-06

 Number of optimized states:  1  Roots:   1
 Number of reference states:  1  Roots:   1

 Reference symmetry:                   1   Singlet 
 Number of electrons:                 36
 Maximum number of shells:             3
 Maximum number of spin couplings:     2

 Reference space:        1 conf        1 CSFs
 N elec internal:        1 conf        1 CSFs
 N-1 el internal:        8 conf        8 CSFs
 N-2 el internal:       36 conf       64 CSFs

 Number of electrons in valence space:                     16
 Maximum number of open shell orbitals in reference space:  0
 Maximum number of open shell orbitals in internal spaces:  4


 Number of core orbitals:          10 (   3   1   1   0   3   1   1   0 )
 Number of closed-shell orbitals:   8 (   2   1   1   0   2   1   1   0 )
 Number of external orbitals:     150 (  28  18  18  11  28  18  18  11 )

 Molecular orbitals read from record     2100.2  Type=RHF/CANONICAL (state 1.1)

 Integral transformation finished. Total CPU:   0.07 sec, npass=  1  Memory used:   0.21 MW

 Number of p-space configurations:   1

 Reference wavefunction optimized for reference space (refopt=1)

 State     Reference Energy 
   1       -1053.63252776

 Number of blocks in overlap matrix:    64   Smallest eigenvalue:  0.10D+01
 Number of N-2 electron functions:      64
 Number of N-1 electron functions:       8

 Number of internal configurations:                    1
 Number of singly external configurations:           184
 Number of doubly external configurations:         92912
 Total number of contracted configurations:        93097
 Total number of uncontracted configurations:      93097

 Diagonal Coupling coefficients finished.               Storage:    4075 words, CPU-Time:      0.00 seconds.
 Energy denominators for pairs finished in 1 passes.    Storage:   50107 words, CPU-time:      0.00 seconds.

  ITER. STATE  ROOT     SQ.NORM     CORR.ENERGY   TOTAL ENERGY   ENERGY CHANGE       DEN1      VAR(S)    VAR(P)      TIME
    1     1     1     1.00000000     0.00000000 -1053.63252776     0.00000000    -0.49045371  0.27D-10  0.15D+00     0.08
    2     1     1     1.12069390    -0.44545759 -1054.07798535    -0.44545759    -0.00579781  0.81D-04  0.13D-02     0.26
    3     1     1     1.11989194    -0.45172029 -1054.08424805    -0.00626270    -0.00014108  0.28D-05  0.37D-04     0.44
    4     1     1     1.12028306    -0.45185498 -1054.08438274    -0.00013469    -0.00000787  0.97D-07  0.20D-05     0.60
    5     1     1     1.12045233    -0.45186302 -1054.08439078    -0.00000804    -0.00000033  0.17D-08  0.77D-07     0.77
    6     1     1     1.12047411    -0.45186338 -1054.08439114    -0.00000036    -0.00000001  0.77D-09  0.27D-08     0.94


 =====================================
 Analysis of CPU times by interactions
 =====================================

       I      S      P

 I   0.0%
 S   0.0%   0.0%
 P   0.0%   0.0%  18.1%

 Initialization:   8.5%
 Other:           73.4%

 Total CPU:        0.9 seconds
 =====================================



 Reference coefficients greater than 0.0500000
 =============================================
 22222222           0.9447112



 RESULTS FOR STATE 1.1
 =====================

 Coefficient of reference function:   C(0) = 0.94471125 (fixed)   0.94471125 (relaxed)

 Energy contributions of configuration classes

 CLASS          SQ.NORM        ECORR1        ECORR2
 +++++++++++++++++++++++++++++++++++++++++++++++++++
 Internals    0.00000000    0.00000000    0.00000000
 Singles      0.00010915   -0.00000001   -0.00004413
 Pairs        0.12036496   -0.45186337   -0.45181924
 Total        1.12047411   -0.45186338   -0.45186338
 +++++++++++++++++++++++++++++++++++++++++++++++++++


 Reference energy                   -1053.63252776
 Nuclear energy                        48.98669020
 Kinetic energy                      1053.97357372
 One electron energy                -1554.36486658
 Two electron energy                  451.29378524
 Virial quotient                       -1.00010514
 Correlation energy                    -0.45186338
 !CI(SD) STATE 1.1 Energy           -1054.084391139475

 !CI(SD) STATE 1.1 Dipole moment        0.00000000     0.00000000     0.00000000
 Dipole moment /Debye                   0.00000000     0.00000000     0.00000000

 Cluster corrected energies         -1054.13882898 (Davidson, fixed reference)
 Cluster corrected energies         -1054.13882898 (Davidson, relaxed reference)

 Cluster corrected energies         -1054.13665560 (Pople, fixed reference)
 Cluster corrected energies         -1054.13665560 (Pople, relaxed reference)



 **********************************************************************************************************************************
 DATASETS  * FILE   NREC   LENGTH (MB)   RECORD NAMES
              1      20       49.46       500      610      700      900      950      970     1000      129      960     1100   
                                          VAR    BASINP    GEOM    SYMINP    ZMAT    AOBASIS   BASIS     P2S    ABASIS      S 
                                         1400     1410     1200     1210     1080     1600     1650     1300     1700     1380   
                                           T        V       H0       H01     AOSYM     SMH    MOLCAS    ERIS     OPER     JKOP   

              2       3        0.38       700     1000     2100   
                                         GEOM     BASIS     RHF  

 PROGRAMS   *        TOTAL        CI        HF       INT        CI        HF       INT        CI        HF       INT
 CPU TIMES  *        15.69      0.96      0.09      4.13      0.97      0.09      4.08      0.94      0.12      4.25
 REAL TIME  *        16.68 SEC
 DISK USED  *       250.05 MB      
 GA USED    *         0.00 MB       (max)       0.00 MB       (current)
 **********************************************************************************************************************************
 SETTING E(3)           =     -1054.08439114  AU                              
 SETTING DIP_X(3)       =         0.00000000  AU                              
 SETTING DIP_Y(3)       =         0.00000000  AU                              
 SETTING DIP_Z(3)       =         0.00000000  AU                              

 DO I                   =         4.00000000   
 SETTING R              =         3.60000000  ANGSTREM                        
 SETTING DIST(4)        =         3.60000000  ANGSTREM                        


 Recomputing integrals since geometry changed

1PROGRAM * SEWARD (Integral evaluation for generally contracted gaussian basis sets)     Author: Roland Lindh, 1990

 Geometry written to block  1 of record 700

 Orientation using atomic masses  
 Molecule type: Linear
 Symmetry elements: X,Y,Z
 Rotational constants:       1.9523026      1.9523026      0.0000000 GHz  (calculated with average atomic masses)

 Point group  D2h 



 ATOMIC COORDINATES

 NR  ATOM    CHARGE       X              Y              Z

   1  AR1    18.00    0.000000000    0.000000000   -3.401507037
   2  AR2    18.00    0.000000000    0.000000000    3.401507037

 NUCLEAR CHARGE:                   36
 NUMBER OF PRIMITIVE AOS:         274
 NUMBER OF SYMMETRY AOS:          224
 NUMBER OF CONTRACTIONS:          168   (  33Ag  +  20B3u +  20B2u +  11B1g +  33B1u +  20B2g +  20B3g +  11Au  )
 NUMBER OF CORE ORBITALS:          10   (   3Ag  +   1B3u +   1B2u +   0B1g +   3B1u +   1B2g +   1B3g +   0Au  )
 NUMBER OF VALENCE ORBITALS:        8   (   2Ag  +   1B3u +   1B2u +   0B1g +   2B1u +   1B2g +   1B3g +   0Au  )


 NUCLEAR REPULSION ENERGY   47.62594881

 EXTRA SYMMETRY OF AOS IN SYMMETRY 1:   1 1 1 1 1 1 1 1 1 1   1 1 1 1 2 1 2 1 2 1   2 1 2 1 2 1 2 1 3 2   1 3 2
 EXTRA SYMMETRY OF AOS IN SYMMETRY 2:   1 1 1 1 1 1 1 1 1 1   1 2 1 2 1 2 1 2 1 2
 EXTRA SYMMETRY OF AOS IN SYMMETRY 3:   1 1 1 1 1 1 1 1 1 1   1 2 1 2 1 2 1 2 1 2
 EXTRA SYMMETRY OF AOS IN SYMMETRY 4:   1 1 1 1 1 1 1 1 2 1   2
 EXTRA SYMMETRY OF AOS IN SYMMETRY 5:   1 1 1 1 1 1 1 1 1 1   1 1 1 1 2 1 2 1 2 1   2 1 2 1 2 1 2 1 3 2   1 3 2
 EXTRA SYMMETRY OF AOS IN SYMMETRY 6:   1 1 1 1 1 1 1 1 1 1   1 2 1 2 1 2 1 2 1 2
 EXTRA SYMMETRY OF AOS IN SYMMETRY 7:   1 1 1 1 1 1 1 1 1 1   1 2 1 2 1 2 1 2 1 2
 EXTRA SYMMETRY OF AOS IN SYMMETRY 8:   1 1 1 1 1 1 1 1 2 1   2

 Eigenvalues of metric

         1 0.201E-03 0.675E-03 0.110E-01 0.482E-01 0.680E-01 0.841E-01 0.940E-01 0.101E+00
         2 0.685E-03 0.546E-01 0.828E-01 0.984E-01 0.106E+00 0.288E+00 0.339E+00 0.344E+00
         3 0.685E-03 0.546E-01 0.828E-01 0.984E-01 0.106E+00 0.288E+00 0.339E+00 0.344E+00
         4 0.841E-01 0.101E+00 0.339E+00 0.340E+00 0.396E+00 0.704E+00 0.117E+01 0.166E+01
         5 0.196E-03 0.643E-03 0.577E-02 0.157E-01 0.385E-01 0.799E-01 0.821E-01 0.854E-01
         6 0.679E-03 0.480E-01 0.629E-01 0.894E-01 0.979E-01 0.206E+00 0.299E+00 0.338E+00
         7 0.679E-03 0.480E-01 0.629E-01 0.894E-01 0.979E-01 0.206E+00 0.299E+00 0.338E+00
         8 0.799E-01 0.955E-01 0.336E+00 0.339E+00 0.366E+00 0.694E+00 0.110E+01 0.166E+01


 Contracted 2-electron integrals neglected if value below      1.0D-11
 AO integral compression algorithm  1   Integral accuracy      1.0D-11

     79.167 MB (compressed) written to integral file ( 41.5%)

     Node minimum: 79.167 MB, node maximum: 79.167 MB


 NUMBER OF SORTED TWO-ELECTRON INTEGRALS:   13027854.     BUFFER LENGTH:  32768
 NUMBER OF SEGMENTS:   2  SEGMENT LENGTH:    6670587      RECORD LENGTH: 524288

 Memory used in sort:       7.23 MW

 SORT1 READ    23909504. AND WROTE     9952227. INTEGRALS IN     29 RECORDS. CPU TIME:     0.46 SEC, REAL TIME:     0.57 SEC
 SORT2 READ     9952227. AND WROTE    13027854. INTEGRALS IN    302 RECORDS. CPU TIME:     0.36 SEC, REAL TIME:     0.40 SEC

 FILE SIZES:   FILE 1:    47.6 MBYTE,  FILE 4:   121.7 MBYTE,   TOTAL:    169.3 MBYTE

 OPERATOR DM      FOR CENTER  0  COORDINATES:    0.000000    0.000000    0.000000


 **********************************************************************************************************************************
 DATASETS  * FILE   NREC   LENGTH (MB)   RECORD NAMES
              1      19       47.65       500      610      700      900      950      970     1000      129      960     1100   
                                          VAR    BASINP    GEOM    SYMINP    ZMAT    AOBASIS   BASIS     P2S    ABASIS      S 
                                         1400     1410     1200     1210     1080     1600     1650     1300     1700   
                                           T        V       H0       H01     AOSYM     SMH    MOLCAS    ERIS     OPER   

              2       3        0.38       700     1000     2100   
                                         GEOM     BASIS     RHF  

 PROGRAMS   *        TOTAL       INT        CI        HF       INT        CI        HF       INT        CI        HF       INT
 CPU TIMES  *        19.86      4.17      0.96      0.09      4.13      0.97      0.09      4.08      0.94      0.12      4.25
 REAL TIME  *        21.07 SEC
 DISK USED  *       250.05 MB      
 GA USED    *         0.00 MB       (max)       0.00 MB       (current)
 **********************************************************************************************************************************

1PROGRAM * RHF-SCF (CLOSED SHELL)       Authors: W. Meyer, H.-J. Werner


 NUMBER OF ELECTRONS:      18+   18-
 CONVERGENCE THRESHOLDS:    1.00E-05 (Density)    1.00E-07 (Energy)
 MAX. NUMBER OF ITERATIONS:       60
 INTERPOLATION TYPE:            DIIS
 INTERPOLATION STEPS:              2 (START)      1 (STEP)
 LEVEL SHIFTS:                  0.00 (CLOSED)  0.00 (OPEN) 



 Molecular orbitals read from record     2100.2  Type=RHF/CANONICAL (state 1.1)

 Molecular orbital dump at record        2100.2

 ITERATION    DDIFF          GRAD             ENERGY        2-EL.EN.            DIPOLE MOMENTS         DIIS
    1      0.000D+00      0.000D+00     -1053.63285481    900.948089    0.00000    0.00000    0.00000    0
    2      0.000D+00      0.748D-04     -1053.63285876    900.960865    0.00000    0.00000    0.00000    1
    3      0.129D-03      0.102D-04     -1053.63285885    900.956629    0.00000    0.00000    0.00000    2
    4      0.232D-04      0.229D-05     -1053.63285885    900.957850    0.00000    0.00000    0.00000    3
    5      0.505D-05      0.364D-06     -1053.63285885    900.957771    0.00000    0.00000    0.00000    0

 Final occupancy:   5   2   2   0   5   2   2   0

 !RHF STATE 1.1 Energy              -1053.632858849378
 Nuclear energy                        47.62594881
 One-electron energy                -1551.73769300
 Two-electron energy                  450.47888534
 Virial quotient                       -0.99999756
 !RHF STATE 1.1 Dipole moment           0.00000000     0.00000000     0.00000000
 Dipole moment /Debye                   0.00000000     0.00000000     0.00000000

 Orbital energies:

         1.1          2.1          3.1          4.1          5.1          6.1          7.1
   -118.609921   -12.321786    -9.571072    -1.278419    -0.601164     0.108645     0.135063

         1.2          2.2          3.2          4.2
     -9.571073    -0.592369     0.101068     0.286398

         1.3          2.3          3.3          4.3
     -9.571073    -0.592369     0.101068     0.286398

         1.4          2.4
      0.297588     0.768823

         1.5          2.5          3.5          4.5          5.5          6.5          7.5
   -118.609921   -12.321787    -9.571072    -1.276121    -0.580947     0.089623     0.223959

         1.6          2.6          3.6          4.6
     -9.571074    -0.589359     0.131437     0.402432

         1.7          2.7          3.7          4.7
     -9.571074    -0.589359     0.131437     0.402432

         1.8          2.8
      0.333024     0.789411


 **********************************************************************************************************************************
 DATASETS  * FILE   NREC   LENGTH (MB)   RECORD NAMES
              1      19       47.65       500      610      700      900      950      970     1000      129      960     1100   
                                          VAR    BASINP    GEOM    SYMINP    ZMAT    AOBASIS   BASIS     P2S    ABASIS      S 
                                         1400     1410     1200     1210     1080     1600     1650     1300     1700   
                                           T        V       H0       H01     AOSYM     SMH    MOLCAS    ERIS     OPER   

              2       3        0.38       700     1000     2100   
                                         GEOM     BASIS     RHF  

 PROGRAMS   *        TOTAL        HF       INT        CI        HF       INT        CI        HF       INT        CI        HF
 CPU TIMES  *        19.95      0.09      4.17      0.96      0.09      4.13      0.97      0.09      4.08      0.94      0.12
 REAL TIME  *        21.18 SEC
 DISK USED  *       250.05 MB      
 GA USED    *         0.00 MB       (max)       0.00 MB       (current)
 **********************************************************************************************************************************

1PROGRAM * CI (Multireference internally contracted CI)     Authors: H.-J. Werner, P.J. Knowles, 1987


 Convergence thresholds:  THRVAR = 1.00D-08  THRDEN = 1.00D-06

 Number of optimized states:  1  Roots:   1
 Number of reference states:  1  Roots:   1

 Reference symmetry:                   1   Singlet 
 Number of electrons:                 36
 Maximum number of shells:             3
 Maximum number of spin couplings:     2

 Reference space:        1 conf        1 CSFs
 N elec internal:        1 conf        1 CSFs
 N-1 el internal:        8 conf        8 CSFs
 N-2 el internal:       36 conf       64 CSFs

 Number of electrons in valence space:                     16
 Maximum number of open shell orbitals in reference space:  0
 Maximum number of open shell orbitals in internal spaces:  4


 Number of core orbitals:          10 (   3   1   1   0   3   1   1   0 )
 Number of closed-shell orbitals:   8 (   2   1   1   0   2   1   1   0 )
 Number of external orbitals:     150 (  28  18  18  11  28  18  18  11 )

 Molecular orbitals read from record     2100.2  Type=RHF/CANONICAL (state 1.1)

 Integral transformation finished. Total CPU:   0.07 sec, npass=  1  Memory used:   0.21 MW

 Number of p-space configurations:   1

 Reference wavefunction optimized for reference space (refopt=1)

 State     Reference Energy 
   1       -1053.63285885

 Number of blocks in overlap matrix:    64   Smallest eigenvalue:  0.10D+01
 Number of N-2 electron functions:      64
 Number of N-1 electron functions:       8

 Number of internal configurations:                    1
 Number of singly external configurations:           184
 Number of doubly external configurations:         92912
 Total number of contracted configurations:        93097
 Total number of uncontracted configurations:      93097

 Diagonal Coupling coefficients finished.               Storage:    4075 words, CPU-Time:      0.00 seconds.
 Energy denominators for pairs finished in 1 passes.    Storage:   50107 words, CPU-time:      0.00 seconds.

  ITER. STATE  ROOT     SQ.NORM     CORR.ENERGY   TOTAL ENERGY   ENERGY CHANGE       DEN1      VAR(S)    VAR(P)      TIME
    1     1     1     1.00000000     0.00000000 -1053.63285885    -0.00000000    -0.48981628  0.12D-10  0.15D+00     0.08
    2     1     1     1.12063527    -0.44531717 -1054.07817602    -0.44531717    -0.00577389  0.81D-04  0.13D-02     0.25
    3     1     1     1.11986771    -0.45155712 -1054.08441597    -0.00623995    -0.00014273  0.27D-05  0.38D-04     0.42
    4     1     1     1.12025449    -0.45169289 -1054.08455174    -0.00013577    -0.00000803  0.10D-06  0.20D-05     0.60
    5     1     1     1.12042553    -0.45170110 -1054.08455995    -0.00000821    -0.00000034  0.16D-08  0.79D-07     0.78
    6     1     1     1.12044773    -0.45170147 -1054.08456032    -0.00000037    -0.00000001  0.75D-09  0.28D-08     0.95


 =====================================
 Analysis of CPU times by interactions
 =====================================

       I      S      P

 I   0.0%
 S   0.0%   0.0%
 P   1.1%   1.1%  18.9%

 Initialization:   8.4%
 Other:           70.5%

 Total CPU:        0.9 seconds
 =====================================



 Reference coefficients greater than 0.0500000
 =============================================
 22222222           0.9447224



 RESULTS FOR STATE 1.1
 =====================

 Coefficient of reference function:   C(0) = 0.94472237 (fixed)   0.94472237 (relaxed)

 Energy contributions of configuration classes

 CLASS          SQ.NORM        ECORR1        ECORR2
 +++++++++++++++++++++++++++++++++++++++++++++++++++
 Internals    0.00000000    0.00000000   -0.00000000
 Singles      0.00010942   -0.00000001   -0.00004423
 Pairs        0.12033831   -0.45170146   -0.45165724
 Total        1.12044773   -0.45170147   -0.45170147
 +++++++++++++++++++++++++++++++++++++++++++++++++++


 Reference energy                   -1053.63285885
 Nuclear energy                        47.62594881
 Kinetic energy                      1053.97086354
 One electron energy                -1551.64141054
 Two electron energy                  449.93090141
 Virial quotient                       -1.00010787
 Correlation energy                    -0.45170147
 !CI(SD) STATE 1.1 Energy           -1054.084560318957

 !CI(SD) STATE 1.1 Dipole moment        0.00000000     0.00000000     0.00000000
 Dipole moment /Debye                   0.00000000     0.00000000     0.00000000

 Cluster corrected energies         -1054.13896674 (Davidson, fixed reference)
 Cluster corrected energies         -1054.13896674 (Davidson, relaxed reference)

 Cluster corrected energies         -1054.13679352 (Pople, fixed reference)
 Cluster corrected energies         -1054.13679352 (Pople, relaxed reference)



 **********************************************************************************************************************************
 DATASETS  * FILE   NREC   LENGTH (MB)   RECORD NAMES
              1      20       49.37       500      610      700      900      950      970     1000      129      960     1100   
                                          VAR    BASINP    GEOM    SYMINP    ZMAT    AOBASIS   BASIS     P2S    ABASIS      S 
                                         1400     1410     1200     1210     1080     1600     1650     1300     1700     1380   
                                           T        V       H0       H01     AOSYM     SMH    MOLCAS    ERIS     OPER     JKOP   

              2       3        0.38       700     1000     2100   
                                         GEOM     BASIS     RHF  

 PROGRAMS   *        TOTAL        CI        HF       INT        CI        HF       INT        CI        HF       INT        CI
 CPU TIMES  *        20.92      0.97      0.09      4.17      0.96      0.09      4.13      0.97      0.09      4.08      0.94
 REAL TIME  *        22.22 SEC
 DISK USED  *       250.05 MB      
 GA USED    *         0.00 MB       (max)       0.00 MB       (current)
 **********************************************************************************************************************************
 SETTING E(4)           =     -1054.08456032  AU                              
 SETTING DIP_X(4)       =         0.00000000  AU                              
 SETTING DIP_Y(4)       =         0.00000000  AU                              
 SETTING DIP_Z(4)       =         0.00000000  AU                              

 DO I                   =         5.00000000   
 SETTING R              =         3.70000000  ANGSTREM                        
 SETTING DIST(5)        =         3.70000000  ANGSTREM                        


 Recomputing integrals since geometry changed

1PROGRAM * SEWARD (Integral evaluation for generally contracted gaussian basis sets)     Author: Roland Lindh, 1990

 Geometry written to block  1 of record 700

 Orientation using atomic masses  
 Molecule type: Linear
 Symmetry elements: X,Y,Z
 Rotational constants:       1.8481988      1.8481988      0.0000000 GHz  (calculated with average atomic masses)

 Point group  D2h 



 ATOMIC COORDINATES

 NR  ATOM    CHARGE       X              Y              Z

   1  AR1    18.00    0.000000000    0.000000000   -3.495993343
   2  AR2    18.00    0.000000000    0.000000000    3.495993343

 NUCLEAR CHARGE:                   36
 NUMBER OF PRIMITIVE AOS:         274
 NUMBER OF SYMMETRY AOS:          224
 NUMBER OF CONTRACTIONS:          168   (  33Ag  +  20B3u +  20B2u +  11B1g +  33B1u +  20B2g +  20B3g +  11Au  )
 NUMBER OF CORE ORBITALS:          10   (   3Ag  +   1B3u +   1B2u +   0B1g +   3B1u +   1B2g +   1B3g +   0Au  )
 NUMBER OF VALENCE ORBITALS:        8   (   2Ag  +   1B3u +   1B2u +   0B1g +   2B1u +   1B2g +   1B3g +   0Au  )


 NUCLEAR REPULSION ENERGY   46.33876100

 EXTRA SYMMETRY OF AOS IN SYMMETRY 1:   1 1 1 1 1 1 1 1 1 1   1 1 1 1 2 1 2 1 2 1   2 1 2 1 2 1 2 1 3 2   1 3 2
 EXTRA SYMMETRY OF AOS IN SYMMETRY 2:   1 1 1 1 1 1 1 1 1 1   1 2 1 2 1 2 1 2 1 2
 EXTRA SYMMETRY OF AOS IN SYMMETRY 3:   1 1 1 1 1 1 1 1 1 1   1 2 1 2 1 2 1 2 1 2
 EXTRA SYMMETRY OF AOS IN SYMMETRY 4:   1 1 1 1 1 1 1 1 2 1   2
 EXTRA SYMMETRY OF AOS IN SYMMETRY 5:   1 1 1 1 1 1 1 1 1 1   1 1 1 1 2 1 2 1 2 1   2 1 2 1 2 1 2 1 3 2   1 3 2
 EXTRA SYMMETRY OF AOS IN SYMMETRY 6:   1 1 1 1 1 1 1 1 1 1   1 2 1 2 1 2 1 2 1 2
 EXTRA SYMMETRY OF AOS IN SYMMETRY 7:   1 1 1 1 1 1 1 1 1 1   1 2 1 2 1 2 1 2 1 2
 EXTRA SYMMETRY OF AOS IN SYMMETRY 8:   1 1 1 1 1 1 1 1 2 1   2

 Eigenvalues of metric

         1 0.201E-03 0.678E-03 0.111E-01 0.482E-01 0.708E-01 0.840E-01 0.940E-01 0.100E+00
         2 0.685E-03 0.546E-01 0.832E-01 0.983E-01 0.105E+00 0.287E+00 0.339E+00 0.342E+00
         3 0.685E-03 0.546E-01 0.832E-01 0.983E-01 0.105E+00 0.287E+00 0.339E+00 0.342E+00
         4 0.840E-01 0.100E+00 0.339E+00 0.340E+00 0.394E+00 0.703E+00 0.116E+01 0.166E+01
         5 0.197E-03 0.647E-03 0.616E-02 0.184E-01 0.392E-01 0.802E-01 0.839E-01 0.863E-01
         6 0.680E-03 0.484E-01 0.649E-01 0.911E-01 0.979E-01 0.210E+00 0.306E+00 0.339E+00
         7 0.680E-03 0.484E-01 0.649E-01 0.911E-01 0.979E-01 0.210E+00 0.306E+00 0.339E+00
         8 0.802E-01 0.961E-01 0.337E+00 0.339E+00 0.368E+00 0.695E+00 0.111E+01 0.166E+01


 Contracted 2-electron integrals neglected if value below      1.0D-11
 AO integral compression algorithm  1   Integral accuracy      1.0D-11

     78.905 MB (compressed) written to integral file ( 41.4%)

     Node minimum: 78.905 MB, node maximum: 78.905 MB


 NUMBER OF SORTED TWO-ELECTRON INTEGRALS:   13027854.     BUFFER LENGTH:  32768
 NUMBER OF SEGMENTS:   2  SEGMENT LENGTH:    6670587      RECORD LENGTH: 524288

 Memory used in sort:       7.23 MW

 SORT1 READ    23909504. AND WROTE     9951231. INTEGRALS IN     29 RECORDS. CPU TIME:     0.47 SEC, REAL TIME:     0.57 SEC
 SORT2 READ     9951231. AND WROTE    13027854. INTEGRALS IN    301 RECORDS. CPU TIME:     0.35 SEC, REAL TIME:     0.40 SEC

 FILE SIZES:   FILE 1:    47.5 MBYTE,  FILE 4:   121.7 MBYTE,   TOTAL:    169.2 MBYTE

 OPERATOR DM      FOR CENTER  0  COORDINATES:    0.000000    0.000000    0.000000


 **********************************************************************************************************************************
 DATASETS  * FILE   NREC   LENGTH (MB)   RECORD NAMES
              1      19       47.55       500      610      700      900      950      970     1000      129      960     1100   
                                          VAR    BASINP    GEOM    SYMINP    ZMAT    AOBASIS   BASIS     P2S    ABASIS      S 
                                         1400     1410     1200     1210     1080     1600     1650     1300     1700   
                                           T        V       H0       H01     AOSYM     SMH    MOLCAS    ERIS     OPER   

              2       3        0.38       700     1000     2100   
                                         GEOM     BASIS     RHF  

 PROGRAMS   *        TOTAL       INT        CI        HF       INT        CI        HF       INT        CI        HF       INT
 CPU TIMES  *        25.04      4.12      0.97      0.09      4.17      0.96      0.09      4.13      0.97      0.09      4.08
 REAL TIME  *        26.57 SEC
 DISK USED  *       250.05 MB      
 GA USED    *         0.00 MB       (max)       0.00 MB       (current)
 **********************************************************************************************************************************

1PROGRAM * RHF-SCF (CLOSED SHELL)       Authors: W. Meyer, H.-J. Werner


 NUMBER OF ELECTRONS:      18+   18-
 CONVERGENCE THRESHOLDS:    1.00E-05 (Density)    1.00E-07 (Energy)
 MAX. NUMBER OF ITERATIONS:       60
 INTERPOLATION TYPE:            DIIS
 INTERPOLATION STEPS:              2 (START)      1 (STEP)
 LEVEL SHIFTS:                  0.00 (CLOSED)  0.00 (OPEN) 



 Molecular orbitals read from record     2100.2  Type=RHF/CANONICAL (state 1.1)

 Molecular orbital dump at record        2100.2

 ITERATION    DDIFF          GRAD             ENERGY        2-EL.EN.            DIPOLE MOMENTS         DIIS
    1      0.000D+00      0.000D+00     -1053.63308760    898.370008    0.00000    0.00000    0.00000    0
    2      0.000D+00      0.625D-04     -1053.63309025    898.380140    0.00000    0.00000    0.00000    1
    3      0.957D-04      0.807D-05     -1053.63309030    898.376764    0.00000    0.00000    0.00000    2
    4      0.179D-04      0.177D-05     -1053.63309030    898.377723    0.00000    0.00000    0.00000    3
    5      0.403D-05      0.259D-06     -1053.63309030    898.377651    0.00000    0.00000    0.00000    0

 Final occupancy:   5   2   2   0   5   2   2   0

 !RHF STATE 1.1 Energy              -1053.633090304630
 Nuclear energy                        46.33876100
 One-electron energy                -1549.16067686
 Two-electron energy                  449.18882556
 Virial quotient                       -1.00000028
 !RHF STATE 1.1 Dipole moment           0.00000000     0.00000000     0.00000000
 Dipole moment /Debye                   0.00000000     0.00000000     0.00000000

 Orbital energies:

         1.1          2.1          3.1          4.1          5.1          6.1          7.1
   -118.610065   -12.321910    -9.571196    -1.278188    -0.599492     0.108526     0.133686

         1.2          2.2          3.2          4.2
     -9.571198    -0.592128     0.100762     0.285444

         1.3          2.3          3.3          4.3
     -9.571198    -0.592128     0.100762     0.285444

         1.4          2.4
      0.298935     0.768870

         1.5          2.5          3.5          4.5          5.5          6.5          7.5
   -118.610065   -12.321911    -9.571196    -1.276417    -0.582632     0.090501     0.221206

         1.6          2.6          3.6          4.6
     -9.571198    -0.589696     0.131017     0.397280

         1.7          2.7          3.7          4.7
     -9.571198    -0.589696     0.131017     0.397280

         1.8          2.8
      0.331220     0.788920


 **********************************************************************************************************************************
 DATASETS  * FILE   NREC   LENGTH (MB)   RECORD NAMES
              1      19       47.55       500      610      700      900      950      970     1000      129      960     1100   
                                          VAR    BASINP    GEOM    SYMINP    ZMAT    AOBASIS   BASIS     P2S    ABASIS      S 
                                         1400     1410     1200     1210     1080     1600     1650     1300     1700   
                                           T        V       H0       H01     AOSYM     SMH    MOLCAS    ERIS     OPER   

              2       3        0.38       700     1000     2100   
                                         GEOM     BASIS     RHF  

 PROGRAMS   *        TOTAL        HF       INT        CI        HF       INT        CI        HF       INT        CI        HF
 CPU TIMES  *        25.13      0.09      4.12      0.97      0.09      4.17      0.96      0.09      4.13      0.97      0.09
 REAL TIME  *        26.68 SEC
 DISK USED  *       250.05 MB      
 GA USED    *         0.00 MB       (max)       0.00 MB       (current)
 **********************************************************************************************************************************

1PROGRAM * CI (Multireference internally contracted CI)     Authors: H.-J. Werner, P.J. Knowles, 1987


 Convergence thresholds:  THRVAR = 1.00D-08  THRDEN = 1.00D-06

 Number of optimized states:  1  Roots:   1
 Number of reference states:  1  Roots:   1

 Reference symmetry:                   1   Singlet 
 Number of electrons:                 36
 Maximum number of shells:             3
 Maximum number of spin couplings:     2

 Reference space:        1 conf        1 CSFs
 N elec internal:        1 conf        1 CSFs
 N-1 el internal:        8 conf        8 CSFs
 N-2 el internal:       36 conf       64 CSFs

 Number of electrons in valence space:                     16
 Maximum number of open shell orbitals in reference space:  0
 Maximum number of open shell orbitals in internal spaces:  4


 Number of core orbitals:          10 (   3   1   1   0   3   1   1   0 )
 Number of closed-shell orbitals:   8 (   2   1   1   0   2   1   1   0 )
 Number of external orbitals:     150 (  28  18  18  11  28  18  18  11 )

 Molecular orbitals read from record     2100.2  Type=RHF/CANONICAL (state 1.1)

 Integral transformation finished. Total CPU:   0.06 sec, npass=  1  Memory used:   0.21 MW

 Number of p-space configurations:   1

 Reference wavefunction optimized for reference space (refopt=1)

 State     Reference Energy 
   1       -1053.63309030

 Number of blocks in overlap matrix:    64   Smallest eigenvalue:  0.10D+01
 Number of N-2 electron functions:      64
 Number of N-1 electron functions:       8

 Number of internal configurations:                    1
 Number of singly external configurations:           184
 Number of doubly external configurations:         92912
 Total number of contracted configurations:        93097
 Total number of uncontracted configurations:      93097

 Diagonal Coupling coefficients finished.               Storage:    4075 words, CPU-Time:      0.00 seconds.
 Energy denominators for pairs finished in 1 passes.    Storage:   50107 words, CPU-time:      0.00 seconds.

  ITER. STATE  ROOT     SQ.NORM     CORR.ENERGY   TOTAL ENERGY   ENERGY CHANGE       DEN1      VAR(S)    VAR(P)      TIME
    1     1     1     1.00000000     0.00000000 -1053.63309030     0.00000000    -0.48920907  0.52D-11  0.15D+00     0.09
    2     1     1     1.12057983    -0.44520450 -1054.07829480    -0.44520450    -0.00575143  0.81D-04  0.13D-02     0.25
    3     1     1     1.11984646    -0.45142315 -1054.08451345    -0.00621865    -0.00014440  0.26D-05  0.38D-04     0.42
    4     1     1     1.12022934    -0.45156004 -1054.08465035    -0.00013690    -0.00000818  0.11D-06  0.20D-05     0.59
    5     1     1     1.12040205    -0.45156842 -1054.08465872    -0.00000837    -0.00000034  0.15D-08  0.80D-07     0.76
    6     1     1     1.12042464    -0.45156879 -1054.08465909    -0.00000037    -0.00000001  0.73D-09  0.29D-08     0.92


 =====================================
 Analysis of CPU times by interactions
 =====================================

       I      S      P

 I   0.0%
 S   0.0%   0.0%
 P   0.0%   2.2%  18.5%

 Initialization:   9.8%
 Other:           69.6%

 Total CPU:        0.9 seconds
 =====================================



 Reference coefficients greater than 0.0500000
 =============================================
 22222222           0.9447321



 RESULTS FOR STATE 1.1
 =====================

 Coefficient of reference function:   C(0) = 0.94473211 (fixed)   0.94473211 (relaxed)

 Energy contributions of configuration classes

 CLASS          SQ.NORM        ECORR1        ECORR2
 +++++++++++++++++++++++++++++++++++++++++++++++++++
 Internals    0.00000000    0.00000000   -0.00000000
 Singles      0.00010970   -0.00000001   -0.00004433
 Pairs        0.12031494   -0.45156878   -0.45152446
 Total        1.12042464   -0.45156879   -0.45156879
 +++++++++++++++++++++++++++++++++++++++++++++++++++


 Reference energy                   -1053.63309030
 Nuclear energy                        46.33876100
 Kinetic energy                      1053.96899483
 One electron energy                -1549.06562222
 Two electron energy                  448.64220212
 Virial quotient                       -1.00010974
 Correlation energy                    -0.45156879
 !CI(SD) STATE 1.1 Energy           -1054.084659092694

 !CI(SD) STATE 1.1 Dipole moment        0.00000000     0.00000000     0.00000000
 Dipole moment /Debye                   0.00000000     0.00000000     0.00000000

 Cluster corrected energies         -1054.13903910 (Davidson, fixed reference)
 Cluster corrected energies         -1054.13903910 (Davidson, relaxed reference)

 Cluster corrected energies         -1054.13686599 (Pople, fixed reference)
 Cluster corrected energies         -1054.13686599 (Pople, relaxed reference)



 **********************************************************************************************************************************
 DATASETS  * FILE   NREC   LENGTH (MB)   RECORD NAMES
              1      20       49.27       500      610      700      900      950      970     1000      129      960     1100   
                                          VAR    BASINP    GEOM    SYMINP    ZMAT    AOBASIS   BASIS     P2S    ABASIS      S 
                                         1400     1410     1200     1210     1080     1600     1650     1300     1700     1380   
                                           T        V       H0       H01     AOSYM     SMH    MOLCAS    ERIS     OPER     JKOP   

              2       3        0.38       700     1000     2100   
                                         GEOM     BASIS     RHF  

 PROGRAMS   *        TOTAL        CI        HF       INT        CI        HF       INT        CI        HF       INT        CI
 CPU TIMES  *        26.08      0.95      0.09      4.12      0.97      0.09      4.17      0.96      0.09      4.13      0.97
 REAL TIME  *        27.72 SEC
 DISK USED  *       250.05 MB      
 GA USED    *         0.00 MB       (max)       0.00 MB       (current)
 **********************************************************************************************************************************
 SETTING E(5)           =     -1054.08465909  AU                              
 SETTING DIP_X(5)       =         0.00000000  AU                              
 SETTING DIP_Y(5)       =         0.00000000  AU                              
 SETTING DIP_Z(5)       =         0.00000000  AU                              

 DO I                   =         6.00000000   
 SETTING R              =         3.80000000  ANGSTREM                        
 SETTING DIST(6)        =         3.80000000  ANGSTREM                        


 Recomputing integrals since geometry changed

1PROGRAM * SEWARD (Integral evaluation for generally contracted gaussian basis sets)     Author: Roland Lindh, 1990

 Geometry written to block  1 of record 700

 Orientation using atomic masses  
 Molecule type: Linear
 Symmetry elements: X,Y,Z
 Rotational constants:       1.7522051      1.7522051      0.0000000 GHz  (calculated with average atomic masses)

 Point group  D2h 



 ATOMIC COORDINATES

[...]

 !CI(SD) STATE 1.1 Dipole moment        0.00000000     0.00000000     0.00000000
 Dipole moment /Debye                   0.00000000     0.00000000     0.00000000

 Cluster corrected energies         -1054.13873893 (Davidson, fixed reference)
 Cluster corrected energies         -1054.13873893 (Davidson, relaxed reference)

 Cluster corrected energies         -1054.13656573 (Pople, fixed reference)
 Cluster corrected energies         -1054.13656573 (Pople, relaxed reference)



 **********************************************************************************************************************************
 DATASETS  * FILE   NREC   LENGTH (MB)   RECORD NAMES
              1      20       45.56       500      610      700      900      950      970     1000      129      960     1100   
                                          VAR    BASINP    GEOM    SYMINP    ZMAT    AOBASIS   BASIS     P2S    ABASIS      S 
                                         1400     1410     1200     1210     1080     1600     1650     1300     1700     1380   
                                           T        V       H0       H01     AOSYM     SMH    MOLCAS    ERIS     OPER     JKOP   

              2       3        0.38       700     1000     2100   
                                         GEOM     BASIS     RHF  

 PROGRAMS   *        TOTAL        CI        HF       INT        CI        HF       INT        CI        HF       INT        CI
 CPU TIMES  *       179.85      0.98      0.07      2.33      0.97      0.07      2.45      1.01      0.05      2.37      1.02
 REAL TIME  *       193.26 SEC
 DISK USED  *       250.05 MB      
 GA USED    *         0.00 MB       (max)       0.00 MB       (current)
 **********************************************************************************************************************************
 SETTING E(42)          =     -1054.08450502  AU                              
 SETTING DIP_X(42)      =         0.00000000  AU                              
 SETTING DIP_Y(42)      =         0.00000000  AU                              
 SETTING DIP_Z(42)      =         0.00000000  AU                              

 DO I                   =        43.00000000   
 SETTING R              =         7.50000000  ANGSTREM                        
 SETTING DIST(43)       =         7.50000000  ANGSTREM                        


 Recomputing integrals since geometry changed

1PROGRAM * SEWARD (Integral evaluation for generally contracted gaussian basis sets)     Author: Roland Lindh, 1990

 Geometry written to block  1 of record 700

 Orientation using atomic masses  
 Molecule type: Linear
 Symmetry elements: X,Y,Z
 Rotational constants:       0.4498105      0.4498105      0.0000000 GHz  (calculated with average atomic masses)

 Point group  D2h 



 ATOMIC COORDINATES

 NR  ATOM    CHARGE       X              Y              Z

   1  AR1    18.00    0.000000000    0.000000000   -7.086472993
   2  AR2    18.00    0.000000000    0.000000000    7.086472993

 NUCLEAR CHARGE:                   36
 NUMBER OF PRIMITIVE AOS:         274
 NUMBER OF SYMMETRY AOS:          224
 NUMBER OF CONTRACTIONS:          168   (  33Ag  +  20B3u +  20B2u +  11B1g +  33B1u +  20B2g +  20B3g +  11Au  )
 NUMBER OF CORE ORBITALS:          10   (   3Ag  +   1B3u +   1B2u +   0B1g +   3B1u +   1B2g +   1B3g +   0Au  )
 NUMBER OF VALENCE ORBITALS:        8   (   2Ag  +   1B3u +   1B2u +   0B1g +   2B1u +   1B2g +   1B3g +   0Au  )


 NUCLEAR REPULSION ENERGY   22.86045543

 EXTRA SYMMETRY OF AOS IN SYMMETRY 1:   1 1 1 1 1 1 1 1 1 1   1 1 1 1 2 1 2 1 2 1   2 1 2 1 2 1 2 1 3 2   1 3 2
 EXTRA SYMMETRY OF AOS IN SYMMETRY 2:   1 1 1 1 1 1 1 1 1 1   1 2 1 2 1 2 1 2 1 2
 EXTRA SYMMETRY OF AOS IN SYMMETRY 3:   1 1 1 1 1 1 1 1 1 1   1 2 1 2 1 2 1 2 1 2
 EXTRA SYMMETRY OF AOS IN SYMMETRY 4:   1 1 1 1 1 1 1 1 2 1   2
 EXTRA SYMMETRY OF AOS IN SYMMETRY 5:   1 1 1 1 1 1 1 1 1 1   1 1 1 1 2 1 2 1 2 1   2 1 2 1 2 1 2 1 3 2   1 3 2
 EXTRA SYMMETRY OF AOS IN SYMMETRY 6:   1 1 1 1 1 1 1 1 1 1   1 2 1 2 1 2 1 2 1 2
 EXTRA SYMMETRY OF AOS IN SYMMETRY 7:   1 1 1 1 1 1 1 1 1 1   1 2 1 2 1 2 1 2 1 2
 EXTRA SYMMETRY OF AOS IN SYMMETRY 8:   1 1 1 1 1 1 1 1 2 1   2

 Eigenvalues of metric

         1 0.201E-03 0.685E-03 0.116E-01 0.555E-01 0.826E-01 0.827E-01 0.913E-01 0.981E-01
         2 0.684E-03 0.535E-01 0.826E-01 0.981E-01 0.981E-01 0.273E+00 0.339E+00 0.339E+00
         3 0.684E-03 0.535E-01 0.826E-01 0.981E-01 0.981E-01 0.273E+00 0.339E+00 0.339E+00
         4 0.826E-01 0.981E-01 0.339E+00 0.339E+00 0.381E+00 0.699E+00 0.113E+01 0.166E+01
         5 0.201E-03 0.680E-03 0.114E-01 0.490E-01 0.825E-01 0.826E-01 0.906E-01 0.981E-01
         6 0.683E-03 0.525E-01 0.826E-01 0.981E-01 0.981E-01 0.266E+00 0.339E+00 0.339E+00
         7 0.683E-03 0.525E-01 0.826E-01 0.981E-01 0.981E-01 0.266E+00 0.339E+00 0.339E+00
         8 0.826E-01 0.981E-01 0.339E+00 0.339E+00 0.381E+00 0.699E+00 0.113E+01 0.166E+01


 Contracted 2-electron integrals neglected if value below      1.0D-11
 AO integral compression algorithm  1   Integral accuracy      1.0D-11

     71.303 MB (compressed) written to integral file ( 37.2%)

     Node minimum: 71.303 MB, node maximum: 71.303 MB


 NUMBER OF SORTED TWO-ELECTRON INTEGRALS:   13027854.     BUFFER LENGTH:  32768
 NUMBER OF SEGMENTS:   2  SEGMENT LENGTH:    6670587      RECORD LENGTH: 524288

 Memory used in sort:       7.23 MW

 SORT1 READ    23909504. AND WROTE     9720048. INTEGRALS IN     29 RECORDS. CPU TIME:     0.46 SEC, REAL TIME:     0.59 SEC
 SORT2 READ     9720048. AND WROTE    13027854. INTEGRALS IN    272 RECORDS. CPU TIME:     0.36 SEC, REAL TIME:     0.41 SEC

 FILE SIZES:   FILE 1:    43.7 MBYTE,  FILE 4:   121.7 MBYTE,   TOTAL:    165.4 MBYTE

 OPERATOR DM      FOR CENTER  0  COORDINATES:    0.000000    0.000000    0.000000


 **********************************************************************************************************************************
 DATASETS  * FILE   NREC   LENGTH (MB)   RECORD NAMES
              1      19       43.75       500      610      700      900      950      970     1000      129      960     1100   
                                          VAR    BASINP    GEOM    SYMINP    ZMAT    AOBASIS   BASIS     P2S    ABASIS      S 
                                         1400     1410     1200     1210     1080     1600     1650     1300     1700   
                                           T        V       H0       H01     AOSYM     SMH    MOLCAS    ERIS     OPER   

              2       3        0.38       700     1000     2100   
                                         GEOM     BASIS     RHF  

 PROGRAMS   *        TOTAL       INT        CI        HF       INT        CI        HF       INT        CI        HF       INT
 CPU TIMES  *       182.15      2.30      0.98      0.07      2.33      0.97      0.07      2.45      1.01      0.05      2.37
 REAL TIME  *       195.80 SEC
 DISK USED  *       250.05 MB      
 GA USED    *         0.00 MB       (max)       0.00 MB       (current)
 **********************************************************************************************************************************

1PROGRAM * RHF-SCF (CLOSED SHELL)       Authors: W. Meyer, H.-J. Werner


 NUMBER OF ELECTRONS:      18+   18-
 CONVERGENCE THRESHOLDS:    1.00E-05 (Density)    1.00E-07 (Energy)
 MAX. NUMBER OF ITERATIONS:       60
 INTERPOLATION TYPE:            DIIS
 INTERPOLATION STEPS:              2 (START)      1 (STEP)
 LEVEL SHIFTS:                  0.00 (CLOSED)  0.00 (OPEN) 



 Molecular orbitals read from record     2100.2  Type=RHF/CANONICAL (state 1.1)

 Molecular orbital dump at record        2100.2

 ITERATION    DDIFF          GRAD             ENERGY        2-EL.EN.            DIPOLE MOMENTS         DIIS
    1      0.000D+00      0.000D+00     -1053.63360990    851.403441    0.00000    0.00000    0.00000    0
    2      0.000D+00      0.194D-05     -1053.63360990    851.403400    0.00000    0.00000    0.00000    1
    3      0.529D-05      0.157D-06     -1053.63360990    851.403406    0.00000    0.00000    0.00000    0

 Final occupancy:   5   2   2   0   5   2   2   0

 !RHF STATE 1.1 Energy              -1053.633609904838
 Nuclear energy                        22.86045543
 One-electron energy                -1502.19576842
 Two-electron energy                  425.70170308
 Virial quotient                       -1.00000694
 !RHF STATE 1.1 Dipole moment           0.00000000     0.00000000     0.00000000
 Dipole moment /Debye                   0.00000000     0.00000000     0.00000000

 Orbital energies:

         1.1          2.1          3.1          4.1          5.1          6.1          7.1
   -118.610475   -12.322273    -9.571563    -1.277430    -0.591080     0.091248     0.120547

         1.2          2.2          3.2          4.2
     -9.571563    -0.591075     0.105980     0.314116

         1.3          2.3          3.3          4.3
     -9.571563    -0.591075     0.105980     0.314116

         1.4          2.4
      0.314331     0.778060

         1.5          2.5          3.5          4.5          5.5          6.5          7.5
   -118.610475   -12.322273    -9.571563    -1.277430    -0.591070     0.115800     0.138174

         1.6          2.6          3.6          4.6
     -9.571563    -0.591074     0.113256     0.314599

         1.7          2.7          3.7          4.7
     -9.571563    -0.591074     0.113256     0.314599

         1.8          2.8
      0.314355     0.778082


 **********************************************************************************************************************************
 DATASETS  * FILE   NREC   LENGTH (MB)   RECORD NAMES
              1      19       43.75       500      610      700      900      950      970     1000      129      960     1100   
                                          VAR    BASINP    GEOM    SYMINP    ZMAT    AOBASIS   BASIS     P2S    ABASIS      S 
                                         1400     1410     1200     1210     1080     1600     1650     1300     1700   
                                           T        V       H0       H01     AOSYM     SMH    MOLCAS    ERIS     OPER   

              2       3        0.38       700     1000     2100   
                                         GEOM     BASIS     RHF  

 PROGRAMS   *        TOTAL        HF       INT        CI        HF       INT        CI        HF       INT        CI        HF
 CPU TIMES  *       182.21      0.06      2.30      0.98      0.07      2.33      0.97      0.07      2.45      1.01      0.05
 REAL TIME  *       195.87 SEC
 DISK USED  *       250.05 MB      
 GA USED    *         0.00 MB       (max)       0.00 MB       (current)
 **********************************************************************************************************************************

1PROGRAM * CI (Multireference internally contracted CI)     Authors: H.-J. Werner, P.J. Knowles, 1987


 Convergence thresholds:  THRVAR = 1.00D-08  THRDEN = 1.00D-06

 Number of optimized states:  1  Roots:   1
 Number of reference states:  1  Roots:   1

 Reference symmetry:                   1   Singlet 
 Number of electrons:                 36
 Maximum number of shells:             3
 Maximum number of spin couplings:     2

 Reference space:        1 conf        1 CSFs
 N elec internal:        1 conf        1 CSFs
 N-1 el internal:        8 conf        8 CSFs
 N-2 el internal:       36 conf       64 CSFs

 Number of electrons in valence space:                     16
 Maximum number of open shell orbitals in reference space:  0
 Maximum number of open shell orbitals in internal spaces:  4


 Number of core orbitals:          10 (   3   1   1   0   3   1   1   0 )
 Number of closed-shell orbitals:   8 (   2   1   1   0   2   1   1   0 )
 Number of external orbitals:     150 (  28  18  18  11  28  18  18  11 )

 Molecular orbitals read from record     2100.2  Type=RHF/CANONICAL (state 1.1)

 Integral transformation finished. Total CPU:   0.08 sec, npass=  1  Memory used:   0.21 MW

 Number of p-space configurations:   1

 Reference wavefunction optimized for reference space (refopt=1)

 State     Reference Energy 
   1       -1053.63360990

 Number of blocks in overlap matrix:    64   Smallest eigenvalue:  0.10D+01
 Number of N-2 electron functions:      64
 Number of N-1 electron functions:       8

 Number of internal configurations:                    1
 Number of singly external configurations:           184
 Number of doubly external configurations:         92912
 Total number of contracted configurations:        93097
 Total number of uncontracted configurations:      93097

 Diagonal Coupling coefficients finished.               Storage:    4075 words, CPU-Time:      0.00 seconds.
 Energy denominators for pairs finished in 1 passes.    Storage:   50107 words, CPU-time:      0.00 seconds.

  ITER. STATE  ROOT     SQ.NORM     CORR.ENERGY   TOTAL ENERGY   ENERGY CHANGE       DEN1      VAR(S)    VAR(P)      TIME
    1     1     1     1.00000000     0.00000000 -1053.63360990    -0.00000000    -0.47908735  0.57D-12  0.14D+00     0.10
    2     1     1     1.11972385    -0.44481545 -1054.07842536    -0.44481545    -0.00543675  0.85D-04  0.12D-02     0.28
    3     1     1     1.11971274    -0.45071186 -1054.08432177    -0.00589641    -0.00019071  0.14D-05  0.53D-04     0.45
    4     1     1     1.12005000    -0.45088206 -1054.08449197    -0.00017020    -0.00001119  0.19D-06  0.27D-05     0.62
    5     1     1     1.12024996    -0.45089393 -1054.08450384    -0.00001187    -0.00000047  0.15D-08  0.11D-06     0.79
    6     1     1     1.12028041    -0.45089445 -1054.08450435    -0.00000051    -0.00000002  0.53D-09  0.52D-08     0.97


 =====================================
 Analysis of CPU times by interactions
 =====================================

       I      S      P

 I   0.0%
 S   0.0%   0.0%
 P   0.0%   1.0%  16.5%

 Initialization:  10.3%
 Other:           72.2%

 Total CPU:        1.0 seconds
 =====================================



 Reference coefficients greater than 0.0500000
 =============================================
 22222222           0.9447929



 RESULTS FOR STATE 1.1
 =====================

 Coefficient of reference function:   C(0) = 0.94479292 (fixed)   0.94479292 (relaxed)

 Energy contributions of configuration classes

 CLASS          SQ.NORM        ECORR1        ECORR2
 +++++++++++++++++++++++++++++++++++++++++++++++++++
 Internals    0.00000000    0.00000000    0.00000000
 Singles      0.00011244    0.00000000   -0.00004534
 Pairs        0.12016797   -0.45089445   -0.45084910
 Total        1.12028041   -0.45089445   -0.45089445
 +++++++++++++++++++++++++++++++++++++++++++++++++++


 Reference energy                   -1053.63360990
 Nuclear energy                        22.86045543
 Kinetic energy                      1053.96666346
 One electron energy                -1502.10803708
 Two electron energy                  425.16307730
 Virial quotient                       -1.00011181
 Correlation energy                    -0.45089445
 !CI(SD) STATE 1.1 Energy           -1054.084504351082

 !CI(SD) STATE 1.1 Dipole moment        0.00000000     0.00000000     0.00000000
 Dipole moment /Debye                   0.00000000     0.00000000     0.00000000

 Cluster corrected energies         -1054.13873812 (Davidson, fixed reference)
 Cluster corrected energies         -1054.13873812 (Davidson, relaxed reference)

 Cluster corrected energies         -1054.13656492 (Pople, fixed reference)
 Cluster corrected energies         -1054.13656492 (Pople, relaxed reference)



 **********************************************************************************************************************************
 DATASETS  * FILE   NREC   LENGTH (MB)   RECORD NAMES
              1      20       45.47       500      610      700      900      950      970     1000      129      960     1100   
                                          VAR    BASINP    GEOM    SYMINP    ZMAT    AOBASIS   BASIS     P2S    ABASIS      S 
                                         1400     1410     1200     1210     1080     1600     1650     1300     1700     1380   
                                           T        V       H0       H01     AOSYM     SMH    MOLCAS    ERIS     OPER     JKOP   

              2       3        0.38       700     1000     2100   
                                         GEOM     BASIS     RHF  

 PROGRAMS   *        TOTAL        CI        HF       INT        CI        HF       INT        CI        HF       INT        CI
 CPU TIMES  *       183.20      0.99      0.06      2.30      0.98      0.07      2.33      0.97      0.07      2.45      1.01
 REAL TIME  *       196.92 SEC
 DISK USED  *       250.05 MB      
 GA USED    *         0.00 MB       (max)       0.00 MB       (current)
 **********************************************************************************************************************************
 SETTING E(43)          =     -1054.08450435  AU                              
 SETTING DIP_X(43)      =         0.00000000  AU                              
 SETTING DIP_Y(43)      =         0.00000000  AU                              
 SETTING DIP_Z(43)      =         0.00000000  AU                              
                                                                                                                                                                                                                                                                

   DIST         E       DIP_X  DIP_Y  DIP_Z
    3.3   -1054.083684    0.0    0.0    0.0
    3.4   -1054.084116    0.0    0.0    0.0
    3.5   -1054.084391    0.0    0.0    0.0
    3.6   -1054.084560    0.0    0.0    0.0
    3.7   -1054.084659    0.0    0.0    0.0
    3.8   -1054.084712    0.0    0.0    0.0
    3.9   -1054.084734    0.0    0.0    0.0
    4.0   -1054.084738    0.0    0.0    0.0
    4.1   -1054.084731    0.0    0.0    0.0
    4.2   -1054.084717    0.0    0.0    0.0
    4.3   -1054.084699    0.0    0.0    0.0
    4.4   -1054.084681    0.0    0.0    0.0
    4.5   -1054.084663    0.0    0.0    0.0
    4.6   -1054.084645    0.0    0.0    0.0
    4.7   -1054.084629    0.0    0.0    0.0
    4.8   -1054.084615    0.0    0.0    0.0
    4.9   -1054.084602    0.0    0.0    0.0
    5.0   -1054.084591    0.0    0.0    0.0
    5.1   -1054.084580    0.0    0.0    0.0
    5.2   -1054.084572    0.0    0.0    0.0
    5.3   -1054.084564    0.0    0.0    0.0
    5.4   -1054.084557    0.0    0.0    0.0
    5.5   -1054.084550    0.0    0.0    0.0
    5.6   -1054.084545    0.0    0.0    0.0
    5.7   -1054.084540    0.0    0.0    0.0
    5.8   -1054.084536    0.0    0.0    0.0
    5.9   -1054.084532    0.0    0.0    0.0
    6.0   -1054.084528    0.0    0.0    0.0
    6.1   -1054.084525    0.0    0.0    0.0
    6.2   -1054.084522    0.0    0.0    0.0
    6.3   -1054.084520    0.0    0.0    0.0
    6.4   -1054.084518    0.0    0.0    0.0
    6.5   -1054.084516    0.0    0.0    0.0
    6.6   -1054.084514    0.0    0.0    0.0
    6.7   -1054.084512    0.0    0.0    0.0
    6.8   -1054.084511    0.0    0.0    0.0
    6.9   -1054.084510    0.0    0.0    0.0
    7.0   -1054.084509    0.0    0.0    0.0
    7.1   -1054.084508    0.0    0.0    0.0
    7.2   -1054.084507    0.0    0.0    0.0
    7.3   -1054.084506    0.0    0.0    0.0
    7.4   -1054.084505    0.0    0.0    0.0
    7.5   -1054.084504    0.0    0.0    0.0
                                                  

        CI              HF-SCF          CI              HF-SCF          CI              HF-SCF          CI              HF-SCF  
  -1054.08450435  -1053.63360990  -1054.08450502  -1053.63360994  -1054.08450576  -1053.63360999  -1054.08450658  -1053.63361004
 **********************************************************************************************************************************
 Variable memory released
