<?xml version="1.0"?>
<molpro xmlns="http://www.molpro.net/schema/molpro-output"
  xmlns:xsd="http://www.w3.org/1999/XMLSchema"
  xmlns:cml="http://www.xml-cml.org/schema"
  xmlns:stm="http://www.xml-cml.org/schema"
  xmlns:xhtml="http://www.w3.org/1999/xhtml">
 <!--

 Primary working directories    : /mnt/SSD/student17
 Secondary working directories  : /mnt/SSD/student17
 Wavefunction directory         : /home/student17/wfu/
 Main file repository           : /mnt/SSD/student17/

 ARCHNAME  : Linux/x86_64
 FC        : /usr/bin/gfortran
 FCVERSION : 4.7.2
 BLASLIB   : -L/opt/intel/mkl/lib/intel64 -lmkl_intel_ilp64 -lmkl_sequential -lmkl_core
 id        : plat

 Nodes     nprocs
 debserv      1
 ga_uses_ma=false, calling ma_init with nominal heap.
 GA-space will be limited to   8.0 MW (determined by -G option)

 Using customized tuning parameters: mindgm=12; mindgv=24; mindgc=8; mindgr=1; noblas=0; mincuda=1000; minvec=7
 default implementation of scratch files=df  

 --><job>
  <!--
 ***,Ar-Ar
 
                                                                                 ! basis = aug-cc-pvqz ! basis set
 basis = aug-cc-pvqz
 
 geometry = {ar1; ar2, ar1, r}
 r_min = 3.30, angstrem
 r_max = 7.50, angstrem
 n = 43
 
 do i=1, n
 r = r_min + (r_max - r_min)/(n-1) * (i-1)
 dist(i) = r
 
                                                                                 ! hartree fock
 hf
 ccsd(t)
 e_complex = energy
 
 text, energy of Ar1
 dummy, ar1
 hf
 ccsd(t)
 e_ar1 = energy
 
 text, energy of Ar2
 dummy, ar2
 hf
 ccsd(t)
 e_ar2 = energy
 
 e(i) = e_complex - e_ar1 - e_ar2
 
 enddo
 
 table dist, e, dip_x, dip_y, dip_z
 save ar2.tab, new

 Variables initialized (661), CPU time= 0.00 sec
 Commands  initialized (460), CPU time= 0.01 sec, 486 directives.
 Default parameters read. Elapsed time= 0.04 sec

 Checking input...
 Passed
1


                                         ***  PROGRAM SYSTEM MOLPRO  ***
                         Copyright, University College Cardiff Consultants Limited, 2008

                                    Version 2010.1 linked 30 Ноя 2013 12:52


 **********************************************************************************************************************************
 LABEL *   Ar-Ar                                                                         
 Linux-3.2.0-4-amd64/debserv(x86_64) 64 bit mpp version                                  DATE: 03-Jun-17          TIME: 17:28:08  
 **********************************************************************************************************************************

 SHA1:             fd122acbd35ef3619fab5330ac0556b6c1fa4be2
 **********************************************************************************************************************************
  -->
  <!--

 Variable memory set to    8000000 words,  buffer space   230000 words

 SETTING BASIS          =    AUG-CC-PVQZ
 SETTING R_MIN          =         3.30000000  ANGSTREM                        
 SETTING R_MAX          =         7.50000000  ANGSTREM                        
 SETTING N              =        43.00000000                                  

 DO I                   =         1.00000000   
 SETTING R              =         3.30000000  ANGSTREM                        
 SETTING DIST(1)        =         3.30000000  ANGSTREM                        
  --><jobstep command="HF-SCF" commandset="SCFPRO">
   <!--


 Recomputing integrals since basis changed


 Using spherical harmonics

 Library entry AR     S aug-cc-pVQZ          selected for orbital group  1
 Library entry AR     P aug-cc-pVQZ          selected for orbital group  1
 Library entry AR     D aug-cc-pVQZ          selected for orbital group  1
 Library entry AR     F aug-cc-pVQZ          selected for orbital group  1
 Library entry AR     G aug-cc-pVQZ          selected for orbital group  1

1PROGRAM * SEWARD (Integral evaluation for generally contracted gaussian basis sets)     Author: Roland Lindh, 1990

 Geometry written to block  1 of record 700

 Orientation using atomic masses  
 Molecule type: Linear
 Symmetry elements: X,Y,Z
 Rotational constants:       2.3234015      2.3234015      0.0000000 GHz  (calculated with average atomic masses)

 Point group  D2h 


   --><cml:symmetry pointGroup="D2h"/><!--
   --><cml:atomArray>
    <cml:atom id="a1" elementType="Ar" x3="0.0" y3="0.0" z3="-1.65"/>
    <cml:atom id="a2" elementType="Ar" x3="0.0" y3="0.0" z3="1.65"/>
   </cml:atomArray><!--
   --><cml:bondArray>
   </cml:bondArray><!--

 ATOMIC COORDINATES

 NR  ATOM    CHARGE       X              Y              Z

   1  AR1    18.00    0.000000000    0.000000000   -3.118048117
   2  AR2    18.00    0.000000000    0.000000000    3.118048117

 NUCLEAR CHARGE:                   36
 NUMBER OF PRIMITIVE AOS:         274
 NUMBER OF SYMMETRY AOS:          224
 NUMBER OF CONTRACTIONS:          168   (  33Ag  +  20B3u +  20B2u +  11B1g +  33B1u +  20B2g +  20B3g +  11Au  )
 NUMBER OF CORE ORBITALS:          10   (   3Ag  +   1B3u +   1B2u +   0B1g +   3B1u +   1B2g +   1B3g +   0Au  )
 NUMBER OF VALENCE ORBITALS:        8   (   2Ag  +   1B3u +   1B2u +   0B1g +   2B1u +   1B2g +   1B3g +   0Au  )


 NUCLEAR REPULSION ENERGY   51.95558052

 EXTRA SYMMETRY OF AOS IN SYMMETRY 1:   1 1 1 1 1 1 1 1 1 1   1 1 1 1 2 1 2 1 2 1   2 1 2 1 2 1 2 1 3 2   1 3 2
 EXTRA SYMMETRY OF AOS IN SYMMETRY 2:   1 1 1 1 1 1 1 1 1 1   1 2 1 2 1 2 1 2 1 2
 EXTRA SYMMETRY OF AOS IN SYMMETRY 3:   1 1 1 1 1 1 1 1 1 1   1 2 1 2 1 2 1 2 1 2
 EXTRA SYMMETRY OF AOS IN SYMMETRY 4:   1 1 1 1 1 1 1 1 2 1   2
 EXTRA SYMMETRY OF AOS IN SYMMETRY 5:   1 1 1 1 1 1 1 1 1 1   1 1 1 1 2 1 2 1 2 1   2 1 2 1 2 1 2 1 3 2   1 3 2
 EXTRA SYMMETRY OF AOS IN SYMMETRY 6:   1 1 1 1 1 1 1 1 1 1   1 2 1 2 1 2 1 2 1 2
 EXTRA SYMMETRY OF AOS IN SYMMETRY 7:   1 1 1 1 1 1 1 1 1 1   1 2 1 2 1 2 1 2 1 2
 EXTRA SYMMETRY OF AOS IN SYMMETRY 8:   1 1 1 1 1 1 1 1 2 1   2

 Eigenvalues of metric

         1 0.201E-03 0.666E-03 0.107E-01 0.483E-01 0.566E-01 0.842E-01 0.944E-01 0.103E+00
         2 0.684E-03 0.548E-01 0.816E-01 0.987E-01 0.107E+00 0.289E+00 0.340E+00 0.355E+00
         3 0.684E-03 0.548E-01 0.816E-01 0.987E-01 0.107E+00 0.289E+00 0.340E+00 0.355E+00
         4 0.842E-01 0.103E+00 0.339E+00 0.344E+00 0.400E+00 0.711E+00 0.119E+01 0.166E+01
         5 0.194E-03 0.636E-03 0.430E-02 0.952E-02 0.366E-01 0.725E-01 0.787E-01 0.840E-01
         6 0.678E-03 0.455E-01 0.566E-01 0.825E-01 0.975E-01 0.193E+00 0.273E+00 0.327E+00
         7 0.678E-03 0.455E-01 0.566E-01 0.825E-01 0.975E-01 0.193E+00 0.273E+00 0.327E+00
         8 0.787E-01 0.926E-01 0.330E+00 0.339E+00 0.360E+00 0.686E+00 0.108E+01 0.165E+01


 Contracted 2-electron integrals neglected if value below      1.0D-11
 AO integral compression algorithm  1   Integral accuracy      1.0D-11

     79.954 MB (compressed) written to integral file ( 41.8%)

     Node minimum: 79.954 MB, node maximum: 79.954 MB


 NUMBER OF SORTED TWO-ELECTRON INTEGRALS:   13027854.     BUFFER LENGTH:  32768
 NUMBER OF SEGMENTS:   2  SEGMENT LENGTH:    6670587      RECORD LENGTH: 524288

 Memory used in sort:       7.23 MW

 SORT1 READ    23909504. AND WROTE     9953512. INTEGRALS IN     29 RECORDS. CPU TIME:     0.44 SEC, REAL TIME:     0.54 SEC
 SORT2 READ     9953512. AND WROTE    13027854. INTEGRALS IN    305 RECORDS. CPU TIME:     0.32 SEC, REAL TIME:     0.39 SEC

 FILE SIZES:   FILE 1:    47.9 MBYTE,  FILE 4:   121.7 MBYTE,   TOTAL:    169.5 MBYTE

 OPERATOR DM      FOR CENTER  0  COORDINATES:    0.000000    0.000000    0.000000


 **********************************************************************************************************************************
 DATASETS  * FILE   NREC   LENGTH (MB)   RECORD NAMES
              1      19       47.92       500      610      700      900      950      970     1000      129      960     1100   
                                          VAR    BASINP    GEOM    SYMINP    ZMAT    AOBASIS   BASIS     P2S    ABASIS      S 
                                         1400     1410     1200     1210     1080     1600     1650     1300     1700   
                                           T        V       H0       H01     AOSYM     SMH    MOLCAS    ERIS     OPER   

 PROGRAMS   *        TOTAL       INT
 CPU TIMES  *         3.88      3.83
 REAL TIME  *         4.45 SEC
 DISK USED  *       250.02 MB      
 GA USED    *         0.00 MB       (max)       0.00 MB       (current)
 **********************************************************************************************************************************

1PROGRAM * RHF-SCF (CLOSED SHELL)       Authors: W. Meyer, H.-J. Werner


 NUMBER OF ELECTRONS:      18+   18-
 CONVERGENCE THRESHOLDS:    1.00E-05 (Density)    1.00E-07 (Energy)
 MAX. NUMBER OF ITERATIONS:       60
 INTERPOLATION TYPE:            DIIS
 INTERPOLATION STEPS:              2 (START)      1 (STEP)
 LEVEL SHIFTS:                  0.00 (CLOSED)  0.00 (OPEN) 



 Orbital guess generated from atomic densities. Full valence occupancy:    5   2   2   0   5   2   2   0


 Molecular orbital dump at record        2100.2

 Initial alpha occupancy:   5   2   2   0   5   2   2   0
 Initial beta  occupancy:   5   2   2   0   5   2   2   0
 Wave function symmetry:    1

 ITERATION    DDIFF          GRAD             ENERGY        2-EL.EN.            DIPOLE MOMENTS         DIIS
    1      0.000D+00      0.000D+00     -1053.63136635    909.674048    0.00000    0.00000    0.00000    0
    2      0.000D+00      0.117D-03     -1053.63137941    909.642309    0.00000    0.00000    0.00000    1
    3      0.206D-03      0.302D-04     -1053.63138030    909.649392    0.00000    0.00000    0.00000    2
    4      0.664D-04      0.845D-05     -1053.63138036    909.646427    0.00000    0.00000    0.00000    3
    5      0.165D-04      0.184D-05     -1053.63138036    909.646290    0.00000    0.00000    0.00000    4
    6      0.480D-05      0.322D-06     -1053.63138036    909.646401    0.00000    0.00000    0.00000    0

 Final occupancy:   5   2   2   0   5   2   2   0

 !RHF STATE 1.1 Energy              -1053.631380363137
   --><property name="Energy" method="RHF" principal="true" stateSymmetry="1" stateNumber="1"
     value="-1053.63138036314"/><!--
 Nuclear energy                        51.95558052
 One-electron energy                -1560.41016160
 Two-electron energy                  454.82320071
 Virial quotient                       -0.99998151
 !RHF STATE 1.1 Dipole moment           0.00000000     0.00000000     0.00000000
 Dipole moment /Debye                   0.00000000     0.00000000     0.00000000
   --><property name="Dipole moment" method="RHF" principal="true" stateSymmetry="1"
     stateNumber="1" value="0.0 0.0 0.0"/><!--

 Orbital energies:

         1.1          2.1          3.1          4.1          5.1          6.1          7.1
   -118.609145   -12.321129    -9.570410    -1.279649    -0.608343     0.108644     0.138983

         1.2          2.2          3.2          4.2
     -9.570407    -0.593501     0.102130     0.290443

         1.3          2.3          3.3          4.3
     -9.570407    -0.593501     0.102130     0.290443

         1.4          2.4
      0.293450     0.769626

         1.5          2.5          3.5          4.5          5.5          6.5          7.5
   -118.609145   -12.321131    -9.570410    -1.274642    -0.573666     0.087021     0.232260

         1.6          2.6          3.6          4.6
     -9.570408    -0.587788     0.132609     0.417593

         1.7          2.7          3.7          4.7
     -9.570408    -0.587788     0.132609     0.417593

         1.8          2.8
      0.339226     0.790781


 **********************************************************************************************************************************
 DATASETS  * FILE   NREC   LENGTH (MB)   RECORD NAMES
              1      19       47.92       500      610      700      900      950      970     1000      129      960     1100   
                                          VAR    BASINP    GEOM    SYMINP    ZMAT    AOBASIS   BASIS     P2S    ABASIS      S 
                                         1400     1410     1200     1210     1080     1600     1650     1300     1700   
                                           T        V       H0       H01     AOSYM     SMH    MOLCAS    ERIS     OPER   

              2       3        0.38       700     1000     2100   
                                         GEOM     BASIS     RHF  

 PROGRAMS   *        TOTAL        HF       INT
 CPU TIMES  *         3.98      0.10      3.83
 REAL TIME  *         4.59 SEC
 DISK USED  *       250.02 MB      
 GA USED    *         0.00 MB       (max)       0.00 MB       (current)
 **********************************************************************************************************************************
   -->
   <time start="17:28:08" end="17:28:13" cpu="3.98" system="0.23" real="4.59"/>
   <storage units="megabyte" memory="65.84" sf="0.0" df="170.07" eaf="79.95" ga="0.0"/>
  </jobstep><!--
  --><jobstep command="CCSD(T)" commandset="CCSD">
   <!--


1PROGRAM * CCSD (Closed-shell coupled cluster)     Authors: C. Hampel, H.-J. Werner, 1991, M. Deegan, P.J. Knowles, 1992


 Convergence thresholds:  THRVAR = 1.00D-08  THRDEN = 1.00D-06

 CCSD(T)     terms to be evaluated (factor= 1.000)


 Number of core orbitals:          10 (   3   1   1   0   3   1   1   0 )
 Number of closed-shell orbitals:   8 (   2   1   1   0   2   1   1   0 )
 Number of external orbitals:     150 (  28  18  18  11  28  18  18  11 )

 Molecular orbitals read from record     2100.2  Type=RHF/CANONICAL (state 1.1)

 Number of N-1 electron functions:               8
 Number of N-2 electron functions:              36
 Number of singly external CSFs:               184
 Number of doubly external CSFs:             92912
 Total number of CSFs:                       93097

 Length of J-op  integral file:               0.00 MB
 Length of K-op  integral file:               0.31 MB
 Length of 3-ext integral record:             0.00 MB

 Memory could be reduced to 5.15 Mwords without degradation in triples

 Integral transformation finished. Total CPU:   0.10 sec, npass=  1  Memory used:   1.71 MW

 Reference energy:                  -1053.63138036

 MP2 singlet pair energy:              -0.30059408
 MP2 triplet pair energy:              -0.16579433
 MP2 correlation energy:               -0.46638841
 MP2 total energy:                  -1054.09776877

 SCS-MP2 correlation energy:           -0.46387381   (PS=  1.200000  PT=  0.333333)
 SCS-MP2 total energy:              -1054.09525418

 ITER.      SQ.NORM     CORR.ENERGY   TOTAL ENERGY   ENERGY CHANGE        DEN1      VAR(S)    VAR(P)  DIIS     TIME
   1      1.14653738    -0.49946003 -1054.13084040    -0.03307162    -0.02503717  0.11D-03  0.14D-02  1  1     0.26
   2      1.15267247    -0.50065263 -1054.13203300    -0.00119260    -0.00850794  0.31D-05  0.46D-04  2  2     0.43
   3      1.15335513    -0.50059733 -1054.13197769     0.00005531    -0.00062066  0.20D-06  0.24D-05  3  3     0.61
   4      1.15348292    -0.50060981 -1054.13199017    -0.00001248    -0.00004641  0.22D-07  0.76D-07  4  4     0.78
   5      1.15349969    -0.50060995 -1054.13199032    -0.00000014    -0.00000791  0.15D-08  0.33D-08  5  5     0.95
   6      1.15350145    -0.50060936 -1054.13198972     0.00000060    -0.00000100  0.21D-09  0.20D-09  6  6     1.11

 Norm of t1 vector:      0.01262977      S-energy:    -0.00000002      T1 diagnostic:  0.00223265
                                                                       D1 diagnostic:  0.00370201


 Total CPU time for triples:      1.76 sec


 RESULTS
 =======

  Reference energy                  -1053.631380363138
  CCSD singlet pair energy             -0.339886694798
  CCSD triplet pair energy             -0.160722645068
  CCSD correlation energy              -0.500609355258

  Triples (T) contribution             -0.017806216875
  Total correlation energy             -0.518415572132

  CCSD total energy                 -1054.131989718395
  CCSD[T] energy                    -1054.149827806765
  CCSD-T energy                     -1054.149805836011
 !CCSD(T) total energy              -1054.149795935270

 Timing summary (sec):

 STEP                 CPU(USER)    SYS     CPU(TOT)    WALL
 Transformation          0.10      0.04      0.14      0.14
 CCSD iterations         1.01      0.07      1.08      1.14
 Triples                 1.76      0.04      1.80      1.80

 Program statistics:

 Available memory in ccsd:                 7999644
 Min. memory needed in ccsd:                301383
 Max. memory used in ccsd:                  379719
 Max. memory used in cckext:                367247 ( 6 integral passes)

   --><property name="energy" method="Reference" stateSymmetry="1" stateNumber="1"
     value="-1053.63138036314"/>
      <property name="singlet pair energy" method="CCSD" stateSymmetry="1" stateNumber="1"
     value="-0.339886694797717"/>
      <property name="triplet pair energy" method="CCSD" stateSymmetry="1" stateNumber="1"
     value="-0.160722645068322"/>
      <property name="correlation energy" method="CCSD" stateSymmetry="1" stateNumber="1"
     value="-0.500609355257531"/>
      <property name="contribution" method="Triples (T)" stateSymmetry="1" stateNumber="1"
     value="-0.178062168747276E-01"/>
      <property name="correlation energy" method="Total" stateSymmetry="1" stateNumber="1"
     value="-0.518415572132259"/>
      <property name="total energy" method="CCSD" stateSymmetry="1" stateNumber="1"
     value="-1054.1319897184"/>
      <property name="energy" method="CCSD[T]" stateSymmetry="1" stateNumber="1"
     value="-1054.14982780676"/>
      <property name="energy" method="CCSD-T" stateSymmetry="1" stateNumber="1"
     value="-1054.14980583601"/>
      <property name="total energy" method="CCSD(T)" principal="true" stateSymmetry="1"
     stateNumber="1" value="-1054.14979593527"/><!--


 **********************************************************************************************************************************
 DATASETS  * FILE   NREC   LENGTH (MB)   RECORD NAMES
              1      20       63.86       500      610      700      900      950      970     1000      129      960     1100   
                                          VAR    BASINP    GEOM    SYMINP    ZMAT    AOBASIS   BASIS     P2S    ABASIS      S 
                                         1400     1410     1200     1210     1080     1600     1650     1300     1700     1380   
                                           T        V       H0       H01     AOSYM     SMH    MOLCAS    ERIS     OPER     JKOP   

              2       3        0.38       700     1000     2100   
                                         GEOM     BASIS     RHF  

 PROGRAMS   *        TOTAL   CCSD(T)        HF       INT
 CPU TIMES  *         6.87      2.89      0.10      3.83
 REAL TIME  *         7.70 SEC
 DISK USED  *       250.02 MB      
 GA USED    *         0.00 MB       (max)       0.00 MB       (current)
 **********************************************************************************************************************************
   -->
   <time start="17:28:13" end="17:28:16" cpu="2.89" system="0.15" real="3.11"/>
   <storage units="megabyte" memory="65.84" sf="0.0" df="170.07" eaf="79.95" ga="0.0"/>
  </jobstep><!--
 SETTING E_COMPLEX      =     -1054.14979594  AU                              

 *** energy of Ar1

 Dummy atoms: AR1
 Symmetry equivalent atom AR2 not found in list of dummies
 ? Error
 ? Symmetry inconsistent with dummy atoms
 ? The problem occurs in readum
  --><error type="Error" location="readum" message="Symmetry inconsistent with dummy atoms"/><!--

 GLOBAL ERROR fehler on processor   0                                         
