<?xml version="1.0"?>
<molpro xmlns="http://www.molpro.net/schema/molpro-output"
  xmlns:xsd="http://www.w3.org/1999/XMLSchema"
  xmlns:cml="http://www.xml-cml.org/schema"
  xmlns:stm="http://www.xml-cml.org/schema"
  xmlns:xhtml="http://www.w3.org/1999/xhtml">
 <!--

 Primary working directories    : /mnt/SSD/student17
 Secondary working directories  : /mnt/SSD/student17
 Wavefunction directory         : /home/student17/wfu/
 Main file repository           : /mnt/SSD/student17/

 ARCHNAME  : Linux/x86_64
 FC        : /usr/bin/gfortran
 FCVERSION : 4.7.2
 BLASLIB   : -L/opt/intel/mkl/lib/intel64 -lmkl_intel_ilp64 -lmkl_sequential -lmkl_core
 id        : plat

 Nodes     nprocs
 debserv      1
 ga_uses_ma=false, calling ma_init with nominal heap.
 GA-space will be limited to   8.0 MW (determined by -G option)

 Using customized tuning parameters: mindgm=12; mindgv=24; mindgc=8; mindgr=1; noblas=0; mincuda=1000; minvec=7
 default implementation of scratch files=df  

 --><job>
  <!--
 ***,Ar-Ar
 
                                                                                 ! basis = aug-cc-pvqz ! basis set
 basis = aug-cc-pwcvqz
 
 geometry = {ar; ar, ar, r}
 r_min = 3.30, angstrem
 r_max = 7.50, angstrem
 n = 43
 
 do i=1, n
 r = r_min + (r_max - r_min)/(n-1) * (i-1)
 dist(i) = r
 
                                                                                 ! hartree fock
 hf
 ccsd(t)
 e_vdw = energy
 
                                                                                 ! atomic energies?
                                                                                 ! dummy ar
                                                                                 ! hf
                                                                                 ! ccsd(t)
                                                                                 ! e_atomic = energy
 
 e(i) = e_vdw
 enddo
 
 table dist, e
 save ar2.tab, new

 Variables initialized (661), CPU time= 0.00 sec
 Commands  initialized (460), CPU time= 0.00 sec, 486 directives.
 Default parameters read. Elapsed time= 0.01 sec

 Checking input...
 Passed
1


                                         ***  PROGRAM SYSTEM MOLPRO  ***
                         Copyright, University College Cardiff Consultants Limited, 2008

                                    Version 2010.1 linked 30 Ноя 2013 12:52


 **********************************************************************************************************************************
 LABEL *   Ar-Ar                                                                         
 Linux-3.2.0-4-amd64/debserv(x86_64) 64 bit mpp version                                  DATE: 02-Jun-17          TIME: 23:49:31  
 **********************************************************************************************************************************

 SHA1:             fd122acbd35ef3619fab5330ac0556b6c1fa4be2
 **********************************************************************************************************************************
  -->
  <!--

 Variable memory set to    8000000 words,  buffer space   230000 words

 SETTING BASIS          =    AUG-CC-PWCVQZ
 SETTING R_MIN          =         3.30000000  ANGSTREM                        
 SETTING R_MAX          =         7.50000000  ANGSTREM                        
 SETTING N              =        43.00000000                                  

 DO I                   =         1.00000000   
 SETTING R              =         3.30000000  ANGSTREM                        
 SETTING DIST(1)        =         3.30000000  ANGSTREM                        
  --><jobstep command="HF-SCF" commandset="SCFPRO">
   <!--


 Recomputing integrals since basis changed


 Using spherical harmonics

 Library entry AR     S aug-cc-pwCVQZ        selected for orbital group  1
 Library entry AR     P aug-cc-pwCVQZ        selected for orbital group  1
 Library entry AR     D aug-cc-pwCVQZ        selected for orbital group  1
 Library entry AR     F aug-cc-pwCVQZ        selected for orbital group  1
 Library entry AR     G aug-cc-pwCVQZ        selected for orbital group  1

1PROGRAM * SEWARD (Integral evaluation for generally contracted gaussian basis sets)     Author: Roland Lindh, 1990

 Geometry written to block  1 of record 700

 Orientation using atomic masses  
 Molecule type: Linear
 Symmetry elements: X,Y,Z
 Rotational constants:       2.3234015      2.3234015      0.0000000 GHz  (calculated with average atomic masses)

 Point group  D2h 


   --><cml:symmetry pointGroup="D2h"/><!--
   --><cml:atomArray>
    <cml:atom id="a1" elementType="Ar" x3="0.0" y3="0.0" z3="-1.65"/>
    <cml:atom id="a2" elementType="Ar" x3="0.0" y3="0.0" z3="1.65"/>
   </cml:atomArray><!--
   --><cml:bondArray>
   </cml:bondArray><!--

 ATOMIC COORDINATES

 NR  ATOM    CHARGE       X              Y              Z

   1  AR     18.00    0.000000000    0.000000000   -3.118048117
   2  AR     18.00    0.000000000    0.000000000    3.118048117

 NUCLEAR CHARGE:                   36
 NUMBER OF PRIMITIVE AOS:         404
 NUMBER OF SYMMETRY AOS:          324
 NUMBER OF CONTRACTIONS:          268   (  52Ag  +  32B3u +  32B2u +  18B1g +  52B1u +  32B2g +  32B3g +  18Au  )
 NUMBER OF CORE ORBITALS:          10   (   3Ag  +   1B3u +   1B2u +   0B1g +   3B1u +   1B2g +   1B3g +   0Au  )
 NUMBER OF VALENCE ORBITALS:        8   (   2Ag  +   1B3u +   1B2u +   0B1g +   2B1u +   1B2g +   1B3g +   0Au  )


 NUCLEAR REPULSION ENERGY   51.95558052

 EXTRA SYMMETRY OF AOS IN SYMMETRY 1:   1 1 1 1 1 1 1 1 1 1   1 1 1 1 1 1 1 1 1 1   2 1 2 1 2 1 2 1 2 1   2 1 2 1 2 1 2 1 2 1
                                        2 1 2 1 3 2 1 3 2 1   3 2
 EXTRA SYMMETRY OF AOS IN SYMMETRY 2:   1 1 1 1 1 1 1 1 1 1   1 1 1 1 1 1 1 2 1 2   1 2 1 2 1 2 1 2 1 2   1 2
 EXTRA SYMMETRY OF AOS IN SYMMETRY 3:   1 1 1 1 1 1 1 1 1 1   1 1 1 1 1 1 1 2 1 2   1 2 1 2 1 2 1 2 1 2   1 2
 EXTRA SYMMETRY OF AOS IN SYMMETRY 4:   1 1 1 1 1 1 1 1 1 1   1 1 1 2 1 2 1 2
 EXTRA SYMMETRY OF AOS IN SYMMETRY 5:   1 1 1 1 1 1 1 1 1 1   1 1 1 1 1 1 1 1 1 1   2 1 2 1 2 1 2 1 2 1   2 1 2 1 2 1 2 1 2 1
                                        2 1 2 1 3 2 1 3 2 1   3 2
 EXTRA SYMMETRY OF AOS IN SYMMETRY 6:   1 1 1 1 1 1 1 1 1 1   1 1 1 1 1 1 1 2 1 2   1 2 1 2 1 2 1 2 1 2   1 2
 EXTRA SYMMETRY OF AOS IN SYMMETRY 7:   1 1 1 1 1 1 1 1 1 1   1 1 1 1 1 1 1 2 1 2   1 2 1 2 1 2 1 2 1 2   1 2
 EXTRA SYMMETRY OF AOS IN SYMMETRY 8:   1 1 1 1 1 1 1 1 1 1   1 1 1 2 1 2 1 2

 Eigenvalues of metric

         1 0.119E-04 0.177E-03 0.709E-03 0.270E-02 0.569E-02 0.153E-01 0.317E-01 0.358E-01
         2 0.182E-03 0.270E-02 0.331E-01 0.399E-01 0.617E-01 0.815E-01 0.873E-01 0.121E+00
         3 0.182E-03 0.270E-02 0.331E-01 0.399E-01 0.617E-01 0.815E-01 0.873E-01 0.121E+00
         4 0.406E-01 0.845E-01 0.123E+00 0.292E+00 0.294E+00 0.301E+00 0.396E+00 0.650E+00
         5 0.118E-04 0.171E-03 0.677E-03 0.269E-02 0.398E-02 0.555E-02 0.135E-01 0.315E-01
         6 0.181E-03 0.270E-02 0.312E-01 0.367E-01 0.527E-01 0.604E-01 0.805E-01 0.104E+00
         7 0.181E-03 0.270E-02 0.312E-01 0.367E-01 0.527E-01 0.604E-01 0.805E-01 0.104E+00
         8 0.397E-01 0.758E-01 0.118E+00 0.278E+00 0.289E+00 0.292E+00 0.384E+00 0.603E+00


 Contracted 2-electron integrals neglected if value below      1.0D-12
 insufficient memory available - require               5661128  have               3761154
 the request was for real words
   --><error/><!--
  --></jobstep><!--

 GLOBAL ERROR fehler on processor   0                                         
