
 Primary working directories    : /mnt/SSD/student17
 Secondary working directories  : /mnt/SSD/student17
 Wavefunction directory         : /home/student17/wfu/
 Main file repository           : /mnt/SSD/student17/

 ARCHNAME  : Linux/x86_64
 FC        : /usr/bin/gfortran
 FCVERSION : 4.7.2
 BLASLIB   : -L/opt/intel/mkl/lib/intel64 -lmkl_intel_ilp64 -lmkl_sequential -lmkl_core
 id        : plat

 Nodes     nprocs
 debserv      1
 ga_uses_ma=false, calling ma_init with nominal heap.
 GA-space will be limited to   8.0 MW (determined by -G option)

 Using customized tuning parameters: mindgm=12; mindgv=24; mindgc=8; mindgr=1; noblas=0; mincuda=1000; minvec=7
 default implementation of scratch files=df  

 ***,Ar-Ar
 
                                                                                 ! basis = aug-cc-pvqz ! basis set
                                                                                 ! basis = avtz
 basis = aug-cc-pvdz
 
 geometry = {ar; ar, ar, r}
 r_min = 3.30, angstrem
 r_max = 7.50, angstrem
 n = 43
 
 do i=1, n
 r = r_min + (r_max - r_min)/(n-1) * (i-1)
 dist(i) = r
 
                                                                                 ! hartree fock
 hf
                                                                                 ! ccsd(t)
 ci
 
 e(i) = energy
 enddo
 
 table dist, e
 save ar2.tab, new

 Variables initialized (661), CPU time= 0.00 sec
 Commands  initialized (460), CPU time= 0.01 sec, 486 directives.
 Default parameters read. Elapsed time= 0.01 sec

 Checking input...
 Passed
1


                                         ***  PROGRAM SYSTEM MOLPRO  ***
                         Copyright, University College Cardiff Consultants Limited, 2008

                                    Version 2010.1 linked 30 Ноя 2013 12:52


 **********************************************************************************************************************************
 LABEL *   Ar-Ar                                                                         
 Linux-3.2.0-4-amd64/debserv(x86_64) 64 bit mpp version                                  DATE: 03-Jun-17          TIME: 14:45:15  
 **********************************************************************************************************************************

 SHA1:             fd122acbd35ef3619fab5330ac0556b6c1fa4be2
 **********************************************************************************************************************************

 Variable memory set to    8000000 words,  buffer space   230000 words

 SETTING BASIS          =    AUG-CC-PVDZ
 SETTING R_MIN          =         3.30000000  ANGSTREM                        
 SETTING R_MAX          =         7.50000000  ANGSTREM                        
 SETTING N              =        43.00000000                                  

 DO I                   =         1.00000000   
 SETTING R              =         3.30000000  ANGSTREM                        
 SETTING DIST(1)        =         3.30000000  ANGSTREM                        


 Recomputing integrals since basis changed


 Using spherical harmonics

 Library entry AR     S aug-cc-pVDZ          selected for orbital group  1
 Library entry AR     P aug-cc-pVDZ          selected for orbital group  1
 Library entry AR     D aug-cc-pVDZ          selected for orbital group  1

1PROGRAM * SEWARD (Integral evaluation for generally contracted gaussian basis sets)     Author: Roland Lindh, 1990

 Geometry written to block  1 of record 700

 Orientation using atomic masses  
 Molecule type: Linear
 Symmetry elements: X,Y,Z
 Rotational constants:       2.3234015      2.3234015      0.0000000 GHz  (calculated with average atomic masses)

 Point group  D2h 



 ATOMIC COORDINATES

 NR  ATOM    CHARGE       X              Y              Z

   1  AR     18.00    0.000000000    0.000000000   -3.118048117
   2  AR     18.00    0.000000000    0.000000000    3.118048117

 NUCLEAR CHARGE:                   36
 NUMBER OF PRIMITIVE AOS:         104
 NUMBER OF SYMMETRY AOS:          100
 NUMBER OF CONTRACTIONS:           54   (  13Ag  +   6B3u +   6B2u +   2B1g +  13B1u +   6B2g +   6B3g +   2Au  )
 NUMBER OF CORE ORBITALS:          10   (   3Ag  +   1B3u +   1B2u +   0B1g +   3B1u +   1B2g +   1B3g +   0Au  )
 NUMBER OF VALENCE ORBITALS:        8   (   2Ag  +   1B3u +   1B2u +   0B1g +   2B1u +   1B2g +   1B3g +   0Au  )


 NUCLEAR REPULSION ENERGY   51.95558052

 EXTRA SYMMETRY OF AOS IN SYMMETRY 1:   1 1 1 1 1 1 1 1 1 1   2 1 2
 EXTRA SYMMETRY OF AOS IN SYMMETRY 5:   1 1 1 1 1 1 1 1 1 1   2 1 2

 Eigenvalues of metric

         1 0.189E-01 0.984E-01 0.376E+00 0.413E+00 0.461E+00 0.607E+00 0.100E+01 0.100E+01
         2 0.105E+00 0.435E+00 0.732E+00 0.100E+01 0.163E+01 0.256E+01
         3 0.105E+00 0.435E+00 0.732E+00 0.100E+01 0.163E+01 0.256E+01
         4 0.413E+00 0.160E+01
         5 0.138E-01 0.743E-01 0.999E-01 0.353E+00 0.404E+00 0.525E+00 0.999E+00 0.100E+01
         6 0.966E-01 0.347E+00 0.460E+00 0.100E+01 0.154E+01 0.209E+01
         7 0.966E-01 0.347E+00 0.460E+00 0.100E+01 0.154E+01 0.209E+01
         8 0.404E+00 0.159E+01


 Contracted 2-electron integrals neglected if value below      1.0D-11
 AO integral compression algorithm  1   Integral accuracy      1.0D-11

     1.835 MB (compressed) written to integral file ( 53.9%)

     Node minimum: 1.835 MB, node maximum: 1.835 MB


 NUMBER OF SORTED TWO-ELECTRON INTEGRALS:     158516.     BUFFER LENGTH:  32768
 NUMBER OF SEGMENTS:   1  SEGMENT LENGTH:     158516      RECORD LENGTH: 524288

 Memory used in sort:       0.72 MW

 SORT1 READ      384136. AND WROTE      143884. INTEGRALS IN      1 RECORDS. CPU TIME:     0.00 SEC, REAL TIME:     0.01 SEC
 SORT2 READ      143884. AND WROTE      158516. INTEGRALS IN      7 RECORDS. CPU TIME:     0.02 SEC, REAL TIME:     0.02 SEC

 FILE SIZES:   FILE 1:     3.3 MBYTE,  FILE 4:     4.2 MBYTE,   TOTAL:      7.6 MBYTE

 OPERATOR DM      FOR CENTER  0  COORDINATES:    0.000000    0.000000    0.000000


 **********************************************************************************************************************************
 DATASETS  * FILE   NREC   LENGTH (MB)   RECORD NAMES
              1      19        3.34       500      610      700      900      950      970     1000      129      960     1100   
                                          VAR    BASINP    GEOM    SYMINP    ZMAT    AOBASIS   BASIS     P2S    ABASIS      S 
                                         1400     1410     1200     1210     1080     1600     1650     1300     1700   
                                           T        V       H0       H01     AOSYM     SMH    MOLCAS    ERIS     OPER   

 PROGRAMS   *        TOTAL       INT
 CPU TIMES  *         0.15      0.11
 REAL TIME  *         0.19 SEC
 DISK USED  *         9.87 MB      
 GA USED    *         0.00 MB       (max)       0.00 MB       (current)
 **********************************************************************************************************************************

1PROGRAM * RHF-SCF (CLOSED SHELL)       Authors: W. Meyer, H.-J. Werner


 NUMBER OF ELECTRONS:      18+   18-
 CONVERGENCE THRESHOLDS:    1.00E-05 (Density)    1.00E-07 (Energy)
 MAX. NUMBER OF ITERATIONS:       60
 INTERPOLATION TYPE:            DIIS
 INTERPOLATION STEPS:              2 (START)      1 (STEP)
 LEVEL SHIFTS:                  0.00 (CLOSED)  0.00 (OPEN) 



 Orbital guess generated from atomic densities. Full valence occupancy:    5   2   2   0   5   2   2   0


 Molecular orbital dump at record        2100.2

 Initial alpha occupancy:   5   2   2   0   5   2   2   0
 Initial beta  occupancy:   5   2   2   0   5   2   2   0
 Wave function symmetry:    1

 ITERATION    DDIFF          GRAD             ENERGY        2-EL.EN.            DIPOLE MOMENTS         DIIS
    1      0.000D+00      0.000D+00     -1053.59973074    909.614228    0.00000    0.00000    0.00000    0
    2      0.000D+00      0.755D-03     -1053.59982845    909.556772    0.00000    0.00000    0.00000    1
    3      0.172D-02      0.181D-03     -1053.59983438    909.545165    0.00000    0.00000    0.00000    2
    4      0.573D-03      0.174D-04     -1053.59983441    909.543804    0.00000    0.00000    0.00000    3
    5      0.209D-04      0.429D-05     -1053.59983441    909.543769    0.00000    0.00000    0.00000    4
    6      0.926D-05      0.553D-06     -1053.59983441    909.543803    0.00000    0.00000    0.00000    0

 Final occupancy:   5   2   2   0   5   2   2   0

 !RHF STATE 1.1 Energy              -1053.599834412229
 Nuclear energy                        51.95558052
 One-electron energy                -1560.32731664
 Two-electron energy                  454.77190171
 Virial quotient                       -0.99997234
 !RHF STATE 1.1 Dipole moment           0.00000000     0.00000000     0.00000000
 Dipole moment /Debye                   0.00000000     0.00000000     0.00000000

 Orbital energies:

         1.1          2.1          3.1          4.1          5.1          6.1          7.1
   -118.609325   -12.321649    -9.570231    -1.281055    -0.609558     0.148698     0.187710

         1.2          2.2          3.2          4.2
     -9.570230    -0.594606     0.139198     0.499531

         1.3          2.3          3.3          4.3
     -9.570230    -0.594606     0.139198     0.499531

         1.4          2.4
      0.534195     1.601231

         1.5          2.5          3.5          4.5          5.5          6.5          7.5
   -118.609325   -12.321662    -9.570234    -1.276034    -0.574764     0.127959     0.289163

         1.6          2.6          3.6          4.6
     -9.570231    -0.588892     0.176364     0.601446

         1.7          2.7          3.7          4.7
     -9.570231    -0.588892     0.176364     0.601446

         1.8          2.8
      0.548900     1.620542


 **********************************************************************************************************************************
 DATASETS  * FILE   NREC   LENGTH (MB)   RECORD NAMES
              1      19        3.34       500      610      700      900      950      970     1000      129      960     1100   
                                          VAR    BASINP    GEOM    SYMINP    ZMAT    AOBASIS   BASIS     P2S    ABASIS      S 
                                         1400     1410     1200     1210     1080     1600     1650     1300     1700   
                                           T        V       H0       H01     AOSYM     SMH    MOLCAS    ERIS     OPER   

              2       3        0.28       700     1000     2100   
                                         GEOM     BASIS     RHF  

 PROGRAMS   *        TOTAL        HF       INT
 CPU TIMES  *         0.16      0.01      0.11
 REAL TIME  *         0.20 SEC
 DISK USED  *         9.87 MB      
 GA USED    *         0.00 MB       (max)       0.00 MB       (current)
 **********************************************************************************************************************************

1PROGRAM * CI (Multireference internally contracted CI)     Authors: H.-J. Werner, P.J. Knowles, 1987


 Convergence thresholds:  THRVAR = 1.00D-08  THRDEN = 1.00D-06

 Number of optimized states:  1  Roots:   1
 Number of reference states:  1  Roots:   1

 Reference symmetry:                   1   Singlet 
 Number of electrons:                 36
 Maximum number of shells:             3
 Maximum number of spin couplings:     2

 Reference space:        1 conf        1 CSFs
 N elec internal:        1 conf        1 CSFs
 N-1 el internal:        8 conf        8 CSFs
 N-2 el internal:       36 conf       64 CSFs

 Number of electrons in valence space:                     16
 Maximum number of open shell orbitals in reference space:  0
 Maximum number of open shell orbitals in internal spaces:  4


 Number of core orbitals:          10 (   3   1   1   0   3   1   1   0 )
 Number of closed-shell orbitals:   8 (   2   1   1   0   2   1   1   0 )
 Number of external orbitals:      36 (   8   4   4   2   8   4   4   2 )

 Molecular orbitals read from record     2100.2  Type=RHF/CANONICAL (state 1.1)

 Integral transformation finished. Total CPU:   0.00 sec, npass=  1  Memory used:   0.08 MW

 Number of p-space configurations:   1

 Reference wavefunction optimized for reference space (refopt=1)

 State     Reference Energy 
   1       -1053.59983441

 Number of blocks in overlap matrix:    64   Smallest eigenvalue:  0.10D+01
 Number of N-2 electron functions:      64
 Number of N-1 electron functions:       8

 Number of internal configurations:                    1
 Number of singly external configurations:            48
 Number of doubly external configurations:          5616
 Total number of contracted configurations:         5665
 Total number of uncontracted configurations:       5665

 Diagonal Coupling coefficients finished.               Storage:    4075 words, CPU-Time:      0.00 seconds.
 Energy denominators for pairs finished in 1 passes.    Storage:    6571 words, CPU-time:      0.00 seconds.

  ITER. STATE  ROOT     SQ.NORM     CORR.ENERGY   TOTAL ENERGY   ENERGY CHANGE       DEN1      VAR(S)    VAR(P)      TIME
    1     1     1     1.00000000     0.00000000 -1053.59983441    -0.00000000    -0.33460623  0.70D-11  0.12D+00     0.00
    2     1     1     1.09879412    -0.30358821 -1053.90342262    -0.30358821    -0.00252835  0.12D-03  0.73D-03     0.01
    3     1     1     1.09929521    -0.30643844 -1053.90627286    -0.00285024    -0.00011648  0.57D-05  0.37D-04     0.02
    4     1     1     1.09970686    -0.30654963 -1053.90638405    -0.00011119    -0.00000397  0.30D-06  0.12D-05     0.02
    5     1     1     1.09982374    -0.30655377 -1053.90638818    -0.00000413    -0.00000019  0.25D-07  0.51D-07     0.03
    6     1     1     1.09983442    -0.30655397 -1053.90638838    -0.00000020    -0.00000001  0.10D-08  0.16D-08     0.04


 =====================================
 Analysis of CPU times by interactions
 =====================================

       I      S      P

 I   0.0%
 S   0.0%   0.0%
 P   0.0%   0.0%  50.0%

 Initialization:   0.0%
 Other:           50.0%

 Total CPU:        0.0 seconds
 =====================================



 Reference coefficients greater than 0.0500000
 =============================================
 22222222           0.9535344



 RESULTS FOR STATE 1.1
 =====================

 Coefficient of reference function:   C(0) = 0.95353436 (fixed)   0.95353436 (relaxed)

 Energy contributions of configuration classes

 CLASS          SQ.NORM        ECORR1        ECORR2
 +++++++++++++++++++++++++++++++++++++++++++++++++++
 Internals    0.00000000    0.00000000    0.00000000
 Singles      0.00017331    0.00000000   -0.00004815
 Pairs        0.09966110   -0.30655397   -0.30650581
 Total        1.09983442   -0.30655397   -0.30655397
 +++++++++++++++++++++++++++++++++++++++++++++++++++


 Reference energy                   -1053.59983441
 Nuclear energy                        51.95558052
 Kinetic energy                      1053.47731865
 One electron energy                -1559.74281292
 Two electron energy                  453.88084402
 Virial quotient                       -1.00040729
 Correlation energy                    -0.30655397
 !CI(SD) STATE 1.1 Energy           -1053.906388380184

 !CI(SD) STATE 1.1 Dipole moment        0.00000000     0.00000000     0.00000000
 Dipole moment /Debye                   0.00000000     0.00000000     0.00000000

 Cluster corrected energies         -1053.93699302 (Davidson, fixed reference)
 Cluster corrected energies         -1053.93699302 (Davidson, relaxed reference)

 Cluster corrected energies         -1053.93529805 (Pople, fixed reference)
 Cluster corrected energies         -1053.93529805 (Pople, relaxed reference)



 **********************************************************************************************************************************
 DATASETS  * FILE   NREC   LENGTH (MB)   RECORD NAMES
              1      20        3.55       500      610      700      900      950      970     1000      129      960     1100   
                                          VAR    BASINP    GEOM    SYMINP    ZMAT    AOBASIS   BASIS     P2S    ABASIS      S 
                                         1400     1410     1200     1210     1080     1600     1650     1300     1700     1380   
                                           T        V       H0       H01     AOSYM     SMH    MOLCAS    ERIS     OPER     JKOP   

              2       3        0.28       700     1000     2100   
                                         GEOM     BASIS     RHF  

 PROGRAMS   *        TOTAL        CI        HF       INT
 CPU TIMES  *         0.21      0.05      0.01      0.11
 REAL TIME  *         0.27 SEC
 DISK USED  *         9.87 MB      
 GA USED    *         0.00 MB       (max)       0.00 MB       (current)
 **********************************************************************************************************************************
 SETTING E(1)           =     -1053.90638838  AU                              

 DO I                   =         2.00000000   
 SETTING R              =         3.40000000  ANGSTREM                        
 SETTING DIST(2)        =         3.40000000  ANGSTREM                        


 Recomputing integrals since geometry changed

1PROGRAM * SEWARD (Integral evaluation for generally contracted gaussian basis sets)     Author: Roland Lindh, 1990

 Geometry written to block  1 of record 700

 Orientation using atomic masses  
 Molecule type: Linear
 Symmetry elements: X,Y,Z
 Rotational constants:       2.1887407      2.1887407      0.0000000 GHz  (calculated with average atomic masses)

 Point group  D2h 



 ATOMIC COORDINATES

 NR  ATOM    CHARGE       X              Y              Z

   1  AR     18.00    0.000000000    0.000000000   -3.212534423
   2  AR     18.00    0.000000000    0.000000000    3.212534423

 NUCLEAR CHARGE:                   36
 NUMBER OF PRIMITIVE AOS:         104
 NUMBER OF SYMMETRY AOS:          100
 NUMBER OF CONTRACTIONS:           54   (  13Ag  +   6B3u +   6B2u +   2B1g +  13B1u +   6B2g +   6B3g +   2Au  )
 NUMBER OF CORE ORBITALS:          10   (   3Ag  +   1B3u +   1B2u +   0B1g +   3B1u +   1B2g +   1B3g +   0Au  )
 NUMBER OF VALENCE ORBITALS:        8   (   2Ag  +   1B3u +   1B2u +   0B1g +   2B1u +   1B2g +   1B3g +   0Au  )


 NUCLEAR REPULSION ENERGY   50.42747521

 EXTRA SYMMETRY OF AOS IN SYMMETRY 1:   1 1 1 1 1 1 1 1 1 1   2 1 2
 EXTRA SYMMETRY OF AOS IN SYMMETRY 5:   1 1 1 1 1 1 1 1 1 1   2 1 2

 Eigenvalues of metric

         1 0.190E-01 0.977E-01 0.376E+00 0.412E+00 0.460E+00 0.618E+00 0.100E+01 0.100E+01
         2 0.105E+00 0.430E+00 0.729E+00 0.100E+01 0.163E+01 0.253E+01
         3 0.105E+00 0.430E+00 0.729E+00 0.100E+01 0.163E+01 0.253E+01
         4 0.412E+00 0.160E+01
         5 0.141E-01 0.776E-01 0.110E+00 0.361E+00 0.405E+00 0.520E+00 0.999E+00 0.100E+01
         6 0.970E-01 0.357E+00 0.467E+00 0.100E+01 0.155E+01 0.210E+01
         7 0.970E-01 0.357E+00 0.467E+00 0.100E+01 0.155E+01 0.210E+01
         8 0.405E+00 0.159E+01


 Contracted 2-electron integrals neglected if value below      1.0D-11
 AO integral compression algorithm  1   Integral accuracy      1.0D-11

     1.835 MB (compressed) written to integral file ( 53.6%)

     Node minimum: 1.835 MB, node maximum: 1.835 MB


 NUMBER OF SORTED TWO-ELECTRON INTEGRALS:     158516.     BUFFER LENGTH:  32768
 NUMBER OF SEGMENTS:   1  SEGMENT LENGTH:     158516      RECORD LENGTH: 524288

 Memory used in sort:       0.72 MW

 SORT1 READ      384136. AND WROTE      143878. INTEGRALS IN      1 RECORDS. CPU TIME:     0.01 SEC, REAL TIME:     0.01 SEC
 SORT2 READ      143878. AND WROTE      158516. INTEGRALS IN      7 RECORDS. CPU TIME:     0.02 SEC, REAL TIME:     0.03 SEC

 FILE SIZES:   FILE 1:     3.3 MBYTE,  FILE 4:     4.2 MBYTE,   TOTAL:      7.6 MBYTE

 OPERATOR DM      FOR CENTER  0  COORDINATES:    0.000000    0.000000    0.000000


 **********************************************************************************************************************************
 DATASETS  * FILE   NREC   LENGTH (MB)   RECORD NAMES
              1      19        3.34       500      610      700      900      950      970     1000      129      960     1100   
                                          VAR    BASINP    GEOM    SYMINP    ZMAT    AOBASIS   BASIS     P2S    ABASIS      S 
                                         1400     1410     1200     1210     1080     1600     1650     1300     1700   
                                           T        V       H0       H01     AOSYM     SMH    MOLCAS    ERIS     OPER   

              2       3        0.28       700     1000     2100   
                                         GEOM     BASIS     RHF  

 PROGRAMS   *        TOTAL       INT        CI        HF       INT
 CPU TIMES  *         0.33      0.12      0.05      0.01      0.11
 REAL TIME  *         0.39 SEC
 DISK USED  *         9.91 MB      
 GA USED    *         0.00 MB       (max)       0.00 MB       (current)
 **********************************************************************************************************************************

1PROGRAM * RHF-SCF (CLOSED SHELL)       Authors: W. Meyer, H.-J. Werner


 NUMBER OF ELECTRONS:      18+   18-
 CONVERGENCE THRESHOLDS:    1.00E-05 (Density)    1.00E-07 (Energy)
 MAX. NUMBER OF ITERATIONS:       60
 INTERPOLATION TYPE:            DIIS
 INTERPOLATION STEPS:              2 (START)      1 (STEP)
 LEVEL SHIFTS:                  0.00 (CLOSED)  0.00 (OPEN) 



 Molecular orbitals read from record     2100.2  Type=RHF/CANONICAL (state 1.1)

 Molecular orbital dump at record        2100.2

 ITERATION    DDIFF          GRAD             ENERGY        2-EL.EN.            DIPOLE MOMENTS         DIIS
    1      0.000D+00      0.000D+00     -1053.60048179    906.466614    0.00000    0.00000    0.00000    0
    2      0.000D+00      0.393D-03     -1053.60049116    906.479824    0.00000    0.00000    0.00000    1
    3      0.646D-03      0.418D-04     -1053.60049136    906.475603    0.00000    0.00000    0.00000    2
    4      0.964D-04      0.672D-05     -1053.60049136    906.476768    0.00000    0.00000    0.00000    3
    5      0.134D-04      0.164D-05     -1053.60049136    906.476591    0.00000    0.00000    0.00000    4
    6      0.283D-05      0.292D-06     -1053.60049136    906.476599    0.00000    0.00000    0.00000    0

 Final occupancy:   5   2   2   0   5   2   2   0

 !RHF STATE 1.1 Energy              -1053.600491363552
 Nuclear energy                        50.42747521
 One-electron energy                -1557.26626587
 Two-electron energy                  453.23829929
 Virial quotient                       -0.99997921
 !RHF STATE 1.1 Dipole moment           0.00000000     0.00000000     0.00000000
 Dipole moment /Debye                   0.00000000     0.00000000     0.00000000

 Orbital energies:

         1.1          2.1          3.1          4.1          5.1          6.1          7.1
   -118.609634   -12.321906    -9.570488    -1.280516    -0.606709     0.148346     0.186057

         1.2          2.2          3.2          4.2
     -9.570491    -0.594137     0.138620     0.505309

         1.3          2.3          3.3          4.3
     -9.570491    -0.594137     0.138620     0.505309

         1.4          2.4
      0.535677     1.602900

         1.5          2.5          3.5          4.5          5.5          6.5          7.5
   -118.609634   -12.321918    -9.570491    -1.276638    -0.577602     0.129141     0.285895

         1.6          2.6          3.6          4.6
     -9.570492    -0.589528     0.175933     0.592963

         1.7          2.7          3.7          4.7
     -9.570492    -0.589528     0.175933     0.592963

         1.8          2.8
      0.547396     1.618565


 **********************************************************************************************************************************
 DATASETS  * FILE   NREC   LENGTH (MB)   RECORD NAMES
              1      19        3.34       500      610      700      900      950      970     1000      129      960     1100   
                                          VAR    BASINP    GEOM    SYMINP    ZMAT    AOBASIS   BASIS     P2S    ABASIS      S 
                                         1400     1410     1200     1210     1080     1600     1650     1300     1700   
                                           T        V       H0       H01     AOSYM     SMH    MOLCAS    ERIS     OPER   

              2       3        0.28       700     1000     2100   
                                         GEOM     BASIS     RHF  

 PROGRAMS   *        TOTAL        HF       INT        CI        HF       INT
 CPU TIMES  *         0.34      0.01      0.12      0.05      0.01      0.11
 REAL TIME  *         0.40 SEC
 DISK USED  *         9.91 MB      
 GA USED    *         0.00 MB       (max)       0.00 MB       (current)
 **********************************************************************************************************************************

1PROGRAM * CI (Multireference internally contracted CI)     Authors: H.-J. Werner, P.J. Knowles, 1987


 Convergence thresholds:  THRVAR = 1.00D-08  THRDEN = 1.00D-06

 Number of optimized states:  1  Roots:   1
 Number of reference states:  1  Roots:   1

 Reference symmetry:                   1   Singlet 
 Number of electrons:                 36
 Maximum number of shells:             3
 Maximum number of spin couplings:     2

 Reference space:        1 conf        1 CSFs
 N elec internal:        1 conf        1 CSFs
 N-1 el internal:        8 conf        8 CSFs
 N-2 el internal:       36 conf       64 CSFs

 Number of electrons in valence space:                     16
 Maximum number of open shell orbitals in reference space:  0
 Maximum number of open shell orbitals in internal spaces:  4


 Number of core orbitals:          10 (   3   1   1   0   3   1   1   0 )
 Number of closed-shell orbitals:   8 (   2   1   1   0   2   1   1   0 )
 Number of external orbitals:      36 (   8   4   4   2   8   4   4   2 )

 Molecular orbitals read from record     2100.2  Type=RHF/CANONICAL (state 1.1)

 Integral transformation finished. Total CPU:   0.00 sec, npass=  1  Memory used:   0.08 MW

 Number of p-space configurations:   1

 Reference wavefunction optimized for reference space (refopt=1)

 State     Reference Energy 
   1       -1053.60049136

 Number of blocks in overlap matrix:    64   Smallest eigenvalue:  0.10D+01
 Number of N-2 electron functions:      64
 Number of N-1 electron functions:       8

 Number of internal configurations:                    1
 Number of singly external configurations:            48
 Number of doubly external configurations:          5616
 Total number of contracted configurations:         5665
 Total number of uncontracted configurations:       5665

 Diagonal Coupling coefficients finished.               Storage:    4075 words, CPU-Time:      0.00 seconds.
 Energy denominators for pairs finished in 1 passes.    Storage:    6571 words, CPU-time:      0.00 seconds.

  ITER. STATE  ROOT     SQ.NORM     CORR.ENERGY   TOTAL ENERGY   ENERGY CHANGE       DEN1      VAR(S)    VAR(P)      TIME
    1     1     1     1.00000000     0.00000000 -1053.60049136    -0.00000000    -0.33381837  0.22D-11  0.12D+00     0.01
    2     1     1     1.09876116    -0.30344614 -1053.90393750    -0.30344614    -0.00250291  0.12D-03  0.72D-03     0.01
    3     1     1     1.09928262    -0.30627353 -1053.90676489    -0.00282739    -0.00011723  0.55D-05  0.37D-04     0.02
    4     1     1     1.09969083    -0.30638488 -1053.90687624    -0.00011135    -0.00000401  0.29D-06  0.12D-05     0.03
    5     1     1     1.09980860    -0.30638906 -1053.90688043    -0.00000418    -0.00000019  0.26D-07  0.52D-07     0.03
    6     1     1     1.09981940    -0.30638926 -1053.90688063    -0.00000020    -0.00000001  0.10D-08  0.16D-08     0.04


 =====================================
 Analysis of CPU times by interactions
 =====================================

       I      S      P

 I   0.0%
 S   0.0%   0.0%
 P   0.0%   0.0%  25.0%

 Initialization:   0.0%
 Other:           75.0%

 Total CPU:        0.0 seconds
 =====================================



 Reference coefficients greater than 0.0500000
 =============================================
 22222222           0.9535409



 RESULTS FOR STATE 1.1
 =====================

 Coefficient of reference function:   C(0) = 0.95354087 (fixed)   0.95354087 (relaxed)

 Energy contributions of configuration classes

 CLASS          SQ.NORM        ECORR1        ECORR2
 +++++++++++++++++++++++++++++++++++++++++++++++++++
 Internals    0.00000000    0.00000000    0.00000000
 Singles      0.00017094   -0.00000000   -0.00004749
 Pairs        0.09964845   -0.30638926   -0.30634178
 Total        1.09981940   -0.30638926   -0.30638926
 +++++++++++++++++++++++++++++++++++++++++++++++++++


 Reference energy                   -1053.60049136
 Nuclear energy                        50.42747521
 Kinetic energy                      1053.47109499
 One electron energy                -1556.68288010
 Two electron energy                  452.34852426
 Virial quotient                       -1.00041367
 Correlation energy                    -0.30638926
 !CI(SD) STATE 1.1 Energy           -1053.906880627538

 !CI(SD) STATE 1.1 Dipole moment        0.00000000     0.00000000     0.00000000
 Dipole moment /Debye                   0.00000000     0.00000000     0.00000000

 Cluster corrected energies         -1053.93746422 (Davidson, fixed reference)
 Cluster corrected energies         -1053.93746422 (Davidson, relaxed reference)

 Cluster corrected energies         -1053.93577008 (Pople, fixed reference)
 Cluster corrected energies         -1053.93577008 (Pople, relaxed reference)



 **********************************************************************************************************************************
 DATASETS  * FILE   NREC   LENGTH (MB)   RECORD NAMES
              1      20        3.55       500      610      700      900      950      970     1000      129      960     1100   
                                          VAR    BASINP    GEOM    SYMINP    ZMAT    AOBASIS   BASIS     P2S    ABASIS      S 
                                         1400     1410     1200     1210     1080     1600     1650     1300     1700     1380   
                                           T        V       H0       H01     AOSYM     SMH    MOLCAS    ERIS     OPER     JKOP   

              2       3        0.28       700     1000     2100   
                                         GEOM     BASIS     RHF  

 PROGRAMS   *        TOTAL        CI        HF       INT        CI        HF       INT
 CPU TIMES  *         0.39      0.05      0.01      0.12      0.05      0.01      0.11
 REAL TIME  *         0.46 SEC
 DISK USED  *         9.91 MB      
 GA USED    *         0.00 MB       (max)       0.00 MB       (current)
 **********************************************************************************************************************************
 SETTING E(2)           =     -1053.90688063  AU                              

 DO I                   =         3.00000000   
 SETTING R              =         3.50000000  ANGSTREM                        
 SETTING DIST(3)        =         3.50000000  ANGSTREM                        


 Recomputing integrals since geometry changed

1PROGRAM * SEWARD (Integral evaluation for generally contracted gaussian basis sets)     Author: Roland Lindh, 1990

 Geometry written to block  1 of record 700

 Orientation using atomic masses  
 Molecule type: Linear
 Symmetry elements: X,Y,Z
 Rotational constants:       2.0654565      2.0654565      0.0000000 GHz  (calculated with average atomic masses)

 Point group  D2h 



 ATOMIC COORDINATES

 NR  ATOM    CHARGE       X              Y              Z

   1  AR     18.00    0.000000000    0.000000000   -3.307020730
   2  AR     18.00    0.000000000    0.000000000    3.307020730

 NUCLEAR CHARGE:                   36
 NUMBER OF PRIMITIVE AOS:         104
 NUMBER OF SYMMETRY AOS:          100
 NUMBER OF CONTRACTIONS:           54   (  13Ag  +   6B3u +   6B2u +   2B1g +  13B1u +   6B2g +   6B3g +   2Au  )
 NUMBER OF CORE ORBITALS:          10   (   3Ag  +   1B3u +   1B2u +   0B1g +   3B1u +   1B2g +   1B3g +   0Au  )
 NUMBER OF VALENCE ORBITALS:        8   (   2Ag  +   1B3u +   1B2u +   0B1g +   2B1u +   1B2g +   1B3g +   0Au  )


 NUCLEAR REPULSION ENERGY   48.98669020

 EXTRA SYMMETRY OF AOS IN SYMMETRY 1:   1 1 1 1 1 1 1 1 1 1   2 1 2
 EXTRA SYMMETRY OF AOS IN SYMMETRY 5:   1 1 1 1 1 1 1 1 1 1   2 1 2

 Eigenvalues of metric

         1 0.190E-01 0.970E-01 0.376E+00 0.411E+00 0.456E+00 0.631E+00 0.100E+01 0.100E+01
         2 0.105E+00 0.426E+00 0.725E+00 0.100E+01 0.162E+01 0.251E+01
         3 0.105E+00 0.426E+00 0.725E+00 0.100E+01 0.162E+01 0.251E+01
         4 0.411E+00 0.159E+01
         5 0.144E-01 0.802E-01 0.120E+00 0.367E+00 0.406E+00 0.516E+00 0.100E+01 0.100E+01
         6 0.973E-01 0.366E+00 0.474E+00 0.100E+01 0.156E+01 0.212E+01
         7 0.973E-01 0.366E+00 0.474E+00 0.100E+01 0.156E+01 0.212E+01
         8 0.406E+00 0.159E+01


 Contracted 2-electron integrals neglected if value below      1.0D-11
 AO integral compression algorithm  1   Integral accuracy      1.0D-11

     1.835 MB (compressed) written to integral file ( 53.4%)

     Node minimum: 1.835 MB, node maximum: 1.835 MB


 NUMBER OF SORTED TWO-ELECTRON INTEGRALS:     158516.     BUFFER LENGTH:  32768
 NUMBER OF SEGMENTS:   1  SEGMENT LENGTH:     158516      RECORD LENGTH: 524288

 Memory used in sort:       0.72 MW

 SORT1 READ      384136. AND WROTE      143876. INTEGRALS IN      1 RECORDS. CPU TIME:     0.00 SEC, REAL TIME:     0.01 SEC
 SORT2 READ      143876. AND WROTE      158516. INTEGRALS IN      7 RECORDS. CPU TIME:     0.02 SEC, REAL TIME:     0.02 SEC

 FILE SIZES:   FILE 1:     3.3 MBYTE,  FILE 4:     4.2 MBYTE,   TOTAL:      7.6 MBYTE

 OPERATOR DM      FOR CENTER  0  COORDINATES:    0.000000    0.000000    0.000000


 **********************************************************************************************************************************
 DATASETS  * FILE   NREC   LENGTH (MB)   RECORD NAMES
              1      19        3.34       500      610      700      900      950      970     1000      129      960     1100   
                                          VAR    BASINP    GEOM    SYMINP    ZMAT    AOBASIS   BASIS     P2S    ABASIS      S 
                                         1400     1410     1200     1210     1080     1600     1650     1300     1700   
                                           T        V       H0       H01     AOSYM     SMH    MOLCAS    ERIS     OPER   

              2       3        0.28       700     1000     2100   
                                         GEOM     BASIS     RHF  

 PROGRAMS   *        TOTAL       INT        CI        HF       INT        CI        HF       INT
 CPU TIMES  *         0.50      0.11      0.05      0.01      0.12      0.05      0.01      0.11
 REAL TIME  *         0.59 SEC
 DISK USED  *         9.91 MB      
 GA USED    *         0.00 MB       (max)       0.00 MB       (current)
 **********************************************************************************************************************************

1PROGRAM * RHF-SCF (CLOSED SHELL)       Authors: W. Meyer, H.-J. Werner


 NUMBER OF ELECTRONS:      18+   18-
 CONVERGENCE THRESHOLDS:    1.00E-05 (Density)    1.00E-07 (Energy)
 MAX. NUMBER OF ITERATIONS:       60
 INTERPOLATION TYPE:            DIIS
 INTERPOLATION STEPS:              2 (START)      1 (STEP)
 LEVEL SHIFTS:                  0.00 (CLOSED)  0.00 (OPEN) 



 Molecular orbitals read from record     2100.2  Type=RHF/CANONICAL (state 1.1)

 Molecular orbital dump at record        2100.2

 ITERATION    DDIFF          GRAD             ENERGY        2-EL.EN.            DIPOLE MOMENTS         DIIS
    1      0.000D+00      0.000D+00     -1053.60094217    903.580377    0.00000    0.00000    0.00000    0
    2      0.000D+00      0.350D-03     -1053.60094925    903.588145    0.00000    0.00000    0.00000    1
    3      0.532D-03      0.345D-04     -1053.60094939    903.585562    0.00000    0.00000    0.00000    2
    4      0.781D-04      0.505D-05     -1053.60094939    903.586317    0.00000    0.00000    0.00000    3
    5      0.106D-04      0.131D-05     -1053.60094939    903.586158    0.00000    0.00000    0.00000    4
    6      0.221D-05      0.251D-06     -1053.60094939    903.586173    0.00000    0.00000    0.00000    0

 Final occupancy:   5   2   2   0   5   2   2   0

 !RHF STATE 1.1 Energy              -1053.600949389860
 Nuclear energy                        48.98669020
 One-electron energy                -1554.38072616
 Two-electron energy                  451.79308657
 Virial quotient                       -0.99998421
 !RHF STATE 1.1 Dipole moment           0.00000000     0.00000000     0.00000000
 Dipole moment /Debye                   0.00000000     0.00000000     0.00000000

 Orbital energies:

         1.1          2.1          3.1          4.1          5.1          6.1          7.1
   -118.609873   -12.322108    -9.570690    -1.280111    -0.604311     0.147869     0.184274

         1.2          2.2          3.2          4.2
     -9.570695    -0.593764     0.138085     0.510770

         1.3          2.3          3.3          4.3
     -9.570695    -0.593764     0.138085     0.510770

         1.4          2.4
      0.536900     1.604355

         1.5          2.5          3.5          4.5          5.5          6.5          7.5
   -118.609873   -12.322118    -9.570692    -1.277115    -0.579990     0.130320     0.282748

         1.6          2.6          3.6          4.6
     -9.570696    -0.590044     0.175477     0.585271

         1.7          2.7          3.7          4.7
     -9.570696    -0.590044     0.175477     0.585271

         1.8          2.8
      0.546151     1.616881


 **********************************************************************************************************************************
 DATASETS  * FILE   NREC   LENGTH (MB)   RECORD NAMES
              1      19        3.34       500      610      700      900      950      970     1000      129      960     1100   
                                          VAR    BASINP    GEOM    SYMINP    ZMAT    AOBASIS   BASIS     P2S    ABASIS      S 
                                         1400     1410     1200     1210     1080     1600     1650     1300     1700   
                                           T        V       H0       H01     AOSYM     SMH    MOLCAS    ERIS     OPER   

              2       3        0.28       700     1000     2100   
                                         GEOM     BASIS     RHF  

 PROGRAMS   *        TOTAL        HF       INT        CI        HF       INT        CI        HF       INT
 CPU TIMES  *         0.51      0.01      0.11      0.05      0.01      0.12      0.05      0.01      0.11
 REAL TIME  *         0.59 SEC
 DISK USED  *         9.91 MB      
 GA USED    *         0.00 MB       (max)       0.00 MB       (current)
 **********************************************************************************************************************************

1PROGRAM * CI (Multireference internally contracted CI)     Authors: H.-J. Werner, P.J. Knowles, 1987


 Convergence thresholds:  THRVAR = 1.00D-08  THRDEN = 1.00D-06

 Number of optimized states:  1  Roots:   1
 Number of reference states:  1  Roots:   1

 Reference symmetry:                   1   Singlet 
 Number of electrons:                 36
 Maximum number of shells:             3
 Maximum number of spin couplings:     2

 Reference space:        1 conf        1 CSFs
 N elec internal:        1 conf        1 CSFs
 N-1 el internal:        8 conf        8 CSFs
 N-2 el internal:       36 conf       64 CSFs

 Number of electrons in valence space:                     16
 Maximum number of open shell orbitals in reference space:  0
 Maximum number of open shell orbitals in internal spaces:  4


 Number of core orbitals:          10 (   3   1   1   0   3   1   1   0 )
 Number of closed-shell orbitals:   8 (   2   1   1   0   2   1   1   0 )
 Number of external orbitals:      36 (   8   4   4   2   8   4   4   2 )

 Molecular orbitals read from record     2100.2  Type=RHF/CANONICAL (state 1.1)

 Integral transformation finished. Total CPU:   0.00 sec, npass=  1  Memory used:   0.08 MW

 Number of p-space configurations:   1

 Reference wavefunction optimized for reference space (refopt=1)

 State     Reference Energy 
   1       -1053.60094939

 Number of blocks in overlap matrix:    64   Smallest eigenvalue:  0.10D+01
 Number of N-2 electron functions:      64
 Number of N-1 electron functions:       8

 Number of internal configurations:                    1
 Number of singly external configurations:            48
 Number of doubly external configurations:          5616
 Total number of contracted configurations:         5665
 Total number of uncontracted configurations:       5665

 Diagonal Coupling coefficients finished.               Storage:    4075 words, CPU-Time:      0.00 seconds.
 Energy denominators for pairs finished in 1 passes.    Storage:    6571 words, CPU-time:      0.00 seconds.

  ITER. STATE  ROOT     SQ.NORM     CORR.ENERGY   TOTAL ENERGY   ENERGY CHANGE       DEN1      VAR(S)    VAR(P)      TIME
    1     1     1     1.00000000     0.00000000 -1053.60094939    -0.00000000    -0.33310124  0.16D-11  0.12D+00     0.00
    2     1     1     1.09872955    -0.30333028 -1053.90427966    -0.30333028    -0.00248085  0.12D-03  0.72D-03     0.01
    3     1     1     1.09927016    -0.30613760 -1053.90708699    -0.00280733    -0.00011811  0.53D-05  0.38D-04     0.02
    4     1     1     1.09967524    -0.30624928 -1053.90719867    -0.00011167    -0.00000406  0.29D-06  0.12D-05     0.02
    5     1     1     1.09979390    -0.30625351 -1053.90720290    -0.00000423    -0.00000019  0.26D-07  0.52D-07     0.03
    6     1     1     1.09980481    -0.30625371 -1053.90720310    -0.00000020    -0.00000001  0.96D-09  0.16D-08     0.03


 =====================================
 Analysis of CPU times by interactions
 =====================================

       I      S      P

 I   0.0%
 S   0.0%   0.0%
 P   0.0%  25.0%   0.0%

 Initialization:   0.0%
 Other:           75.0%

 Total CPU:        0.0 seconds
 =====================================



 Reference coefficients greater than 0.0500000
 =============================================
 22222222           0.9535472



 RESULTS FOR STATE 1.1
 =====================

 Coefficient of reference function:   C(0) = 0.95354719 (fixed)   0.95354719 (relaxed)

 Energy contributions of configuration classes

 CLASS          SQ.NORM        ECORR1        ECORR2
 +++++++++++++++++++++++++++++++++++++++++++++++++++
 Internals    0.00000000    0.00000000   -0.00000000
 Singles      0.00016882   -0.00000000   -0.00004689
 Pairs        0.09963600   -0.30625371   -0.30620683
 Total        1.09980481   -0.30625371   -0.30625371
 +++++++++++++++++++++++++++++++++++++++++++++++++++


 Reference energy                   -1053.60094939
 Nuclear energy                        48.98669020
 Kinetic energy                      1053.46666396
 One electron energy                -1553.79833060
 Two electron energy                  450.90443729
 Virial quotient                       -1.00041818
 Correlation energy                    -0.30625371
 !CI(SD) STATE 1.1 Energy           -1053.907203101226

 !CI(SD) STATE 1.1 Dipole moment        0.00000000     0.00000000     0.00000000
 Dipole moment /Debye                   0.00000000     0.00000000     0.00000000

 Cluster corrected energies         -1053.93776870 (Davidson, fixed reference)
 Cluster corrected energies         -1053.93776870 (Davidson, relaxed reference)

 Cluster corrected energies         -1053.93607522 (Pople, fixed reference)
 Cluster corrected energies         -1053.93607522 (Pople, relaxed reference)



 **********************************************************************************************************************************
 DATASETS  * FILE   NREC   LENGTH (MB)   RECORD NAMES
              1      20        3.55       500      610      700      900      950      970     1000      129      960     1100   
                                          VAR    BASINP    GEOM    SYMINP    ZMAT    AOBASIS   BASIS     P2S    ABASIS      S 
                                         1400     1410     1200     1210     1080     1600     1650     1300     1700     1380   
                                           T        V       H0       H01     AOSYM     SMH    MOLCAS    ERIS     OPER     JKOP   

              2       3        0.28       700     1000     2100   
                                         GEOM     BASIS     RHF  

 PROGRAMS   *        TOTAL        CI        HF       INT        CI        HF       INT        CI        HF       INT
 CPU TIMES  *         0.56      0.05      0.01      0.11      0.05      0.01      0.12      0.05      0.01      0.11
 REAL TIME  *         0.65 SEC
 DISK USED  *         9.91 MB      
 GA USED    *         0.00 MB       (max)       0.00 MB       (current)
 **********************************************************************************************************************************
 SETTING E(3)           =     -1053.90720310  AU                              

 DO I                   =         4.00000000   
 SETTING R              =         3.60000000  ANGSTREM                        
 SETTING DIST(4)        =         3.60000000  ANGSTREM                        


 Recomputing integrals since geometry changed

1PROGRAM * SEWARD (Integral evaluation for generally contracted gaussian basis sets)     Author: Roland Lindh, 1990

 Geometry written to block  1 of record 700

 Orientation using atomic masses  
 Molecule type: Linear
 Symmetry elements: X,Y,Z
 Rotational constants:       1.9523026      1.9523026      0.0000000 GHz  (calculated with average atomic masses)

 Point group  D2h 



 ATOMIC COORDINATES

 NR  ATOM    CHARGE       X              Y              Z

   1  AR     18.00    0.000000000    0.000000000   -3.401507037
   2  AR     18.00    0.000000000    0.000000000    3.401507037

 NUCLEAR CHARGE:                   36
 NUMBER OF PRIMITIVE AOS:         104
 NUMBER OF SYMMETRY AOS:          100
 NUMBER OF CONTRACTIONS:           54   (  13Ag  +   6B3u +   6B2u +   2B1g +  13B1u +   6B2g +   6B3g +   2Au  )
 NUMBER OF CORE ORBITALS:          10   (   3Ag  +   1B3u +   1B2u +   0B1g +   3B1u +   1B2g +   1B3g +   0Au  )
 NUMBER OF VALENCE ORBITALS:        8   (   2Ag  +   1B3u +   1B2u +   0B1g +   2B1u +   1B2g +   1B3g +   0Au  )


 NUCLEAR REPULSION ENERGY   47.62594881

 EXTRA SYMMETRY OF AOS IN SYMMETRY 1:   1 1 1 1 1 1 1 1 1 1   2 1 2
 EXTRA SYMMETRY OF AOS IN SYMMETRY 5:   1 1 1 1 1 1 1 1 1 1   2 1 2

 Eigenvalues of metric

         1 0.191E-01 0.963E-01 0.376E+00 0.410E+00 0.451E+00 0.645E+00 0.100E+01 0.100E+01
         2 0.105E+00 0.422E+00 0.722E+00 0.100E+01 0.161E+01 0.249E+01
         3 0.105E+00 0.422E+00 0.722E+00 0.100E+01 0.161E+01 0.249E+01
         4 0.410E+00 0.159E+01
         5 0.147E-01 0.823E-01 0.130E+00 0.374E+00 0.407E+00 0.511E+00 0.100E+01 0.100E+01
         6 0.976E-01 0.374E+00 0.480E+00 0.100E+01 0.157E+01 0.213E+01
         7 0.976E-01 0.374E+00 0.480E+00 0.100E+01 0.157E+01 0.213E+01
         8 0.407E+00 0.159E+01


 Contracted 2-electron integrals neglected if value below      1.0D-11
 AO integral compression algorithm  1   Integral accuracy      1.0D-11

     1.835 MB (compressed) written to integral file ( 53.3%)

     Node minimum: 1.835 MB, node maximum: 1.835 MB


 NUMBER OF SORTED TWO-ELECTRON INTEGRALS:     158516.     BUFFER LENGTH:  32768
 NUMBER OF SEGMENTS:   1  SEGMENT LENGTH:     158516      RECORD LENGTH: 524288

 Memory used in sort:       0.72 MW

 SORT1 READ      384136. AND WROTE      143882. INTEGRALS IN      1 RECORDS. CPU TIME:     0.00 SEC, REAL TIME:     0.01 SEC
 SORT2 READ      143882. AND WROTE      158516. INTEGRALS IN      7 RECORDS. CPU TIME:     0.03 SEC, REAL TIME:     0.03 SEC

 FILE SIZES:   FILE 1:     3.3 MBYTE,  FILE 4:     4.2 MBYTE,   TOTAL:      7.6 MBYTE

 OPERATOR DM      FOR CENTER  0  COORDINATES:    0.000000    0.000000    0.000000


 **********************************************************************************************************************************
 DATASETS  * FILE   NREC   LENGTH (MB)   RECORD NAMES
              1      19        3.34       500      610      700      900      950      970     1000      129      960     1100   
                                          VAR    BASINP    GEOM    SYMINP    ZMAT    AOBASIS   BASIS     P2S    ABASIS      S 
                                         1400     1410     1200     1210     1080     1600     1650     1300     1700   
                                           T        V       H0       H01     AOSYM     SMH    MOLCAS    ERIS     OPER   

              2       3        0.28       700     1000     2100   
                                         GEOM     BASIS     RHF  

 PROGRAMS   *        TOTAL       INT        CI        HF       INT        CI        HF       INT        CI        HF       INT
 CPU TIMES  *         0.68      0.12      0.05      0.01      0.11      0.05      0.01      0.12      0.05      0.01      0.11
 REAL TIME  *         0.78 SEC
 DISK USED  *         9.91 MB      
 GA USED    *         0.00 MB       (max)       0.00 MB       (current)
 **********************************************************************************************************************************

1PROGRAM * RHF-SCF (CLOSED SHELL)       Authors: W. Meyer, H.-J. Werner


 NUMBER OF ELECTRONS:      18+   18-
 CONVERGENCE THRESHOLDS:    1.00E-05 (Density)    1.00E-07 (Energy)
 MAX. NUMBER OF ITERATIONS:       60
 INTERPOLATION TYPE:            DIIS
 INTERPOLATION STEPS:              2 (START)      1 (STEP)
 LEVEL SHIFTS:                  0.00 (CLOSED)  0.00 (OPEN) 



 Molecular orbitals read from record     2100.2  Type=RHF/CANONICAL (state 1.1)

 Molecular orbital dump at record        2100.2

 ITERATION    DDIFF          GRAD             ENERGY        2-EL.EN.            DIPOLE MOMENTS         DIIS
    1      0.000D+00      0.000D+00     -1053.60126366    900.854975    0.00000    0.00000    0.00000    0
    2      0.000D+00      0.312D-03     -1053.60126897    900.858597    0.00000    0.00000    0.00000    1
    3      0.434D-03      0.284D-04     -1053.60126906    900.857265    0.00000    0.00000    0.00000    2
    4      0.623D-04      0.394D-05     -1053.60126906    900.857667    0.00000    0.00000    0.00000    3
    5      0.862D-05      0.768D-06     -1053.60126906    900.857548    0.00000    0.00000    0.00000    0

 Final occupancy:   5   2   2   0   5   2   2   0

 !RHF STATE 1.1 Energy              -1053.601269063300
 Nuclear energy                        47.62594881
 One-electron energy                -1551.65599203
 Two-electron energy                  450.42877416
 Virial quotient                       -0.99998783
 !RHF STATE 1.1 Dipole moment           0.00000000     0.00000000     0.00000000
 Dipole moment /Debye                   0.00000000     0.00000000     0.00000000

 Orbital energies:

         1.1          2.1          3.1          4.1          5.1          6.1          7.1
   -118.610058   -12.322266    -9.570848    -1.279804    -0.602301     0.147255     0.182405

         1.2          2.2          3.2          4.2
     -9.570854    -0.593465     0.137599     0.515792

         1.3          2.3          3.3          4.3
     -9.570854    -0.593465     0.137599     0.515792

         1.4          2.4
      0.537896     1.605593

         1.5          2.5          3.5          4.5          5.5          6.5          7.5
   -118.610058   -12.322275    -9.570849    -1.277493    -0.581998     0.131492     0.279711

         1.6          2.6          3.6          4.6
     -9.570854    -0.590463     0.174994     0.578372

         1.7          2.7          3.7          4.7
     -9.570854    -0.590463     0.174994     0.578372

         1.8          2.8
      0.545133     1.615474


 **********************************************************************************************************************************
 DATASETS  * FILE   NREC   LENGTH (MB)   RECORD NAMES
              1      19        3.34       500      610      700      900      950      970     1000      129      960     1100   
                                          VAR    BASINP    GEOM    SYMINP    ZMAT    AOBASIS   BASIS     P2S    ABASIS      S 
                                         1400     1410     1200     1210     1080     1600     1650     1300     1700   
                                           T        V       H0       H01     AOSYM     SMH    MOLCAS    ERIS     OPER   

              2       3        0.28       700     1000     2100   
                                         GEOM     BASIS     RHF  

 PROGRAMS   *        TOTAL        HF       INT        CI        HF       INT        CI        HF       INT        CI        HF
 CPU TIMES  *         0.68      0.00      0.12      0.05      0.01      0.11      0.05      0.01      0.12      0.05      0.01
 REAL TIME  *         0.79 SEC
 DISK USED  *         9.91 MB      
 GA USED    *         0.00 MB       (max)       0.00 MB       (current)
 **********************************************************************************************************************************

1PROGRAM * CI (Multireference internally contracted CI)     Authors: H.-J. Werner, P.J. Knowles, 1987


 Convergence thresholds:  THRVAR = 1.00D-08  THRDEN = 1.00D-06

 Number of optimized states:  1  Roots:   1
 Number of reference states:  1  Roots:   1

 Reference symmetry:                   1   Singlet 
 Number of electrons:                 36
 Maximum number of shells:             3
 Maximum number of spin couplings:     2

 Reference space:        1 conf        1 CSFs
 N elec internal:        1 conf        1 CSFs
 N-1 el internal:        8 conf        8 CSFs
 N-2 el internal:       36 conf       64 CSFs

 Number of electrons in valence space:                     16
 Maximum number of open shell orbitals in reference space:  0
 Maximum number of open shell orbitals in internal spaces:  4


 Number of core orbitals:          10 (   3   1   1   0   3   1   1   0 )
 Number of closed-shell orbitals:   8 (   2   1   1   0   2   1   1   0 )
 Number of external orbitals:      36 (   8   4   4   2   8   4   4   2 )

 Molecular orbitals read from record     2100.2  Type=RHF/CANONICAL (state 1.1)

 Integral transformation finished. Total CPU:   0.01 sec, npass=  1  Memory used:   0.08 MW

 Number of p-space configurations:   1

 Reference wavefunction optimized for reference space (refopt=1)

 State     Reference Energy 
   1       -1053.60126906

 Number of blocks in overlap matrix:    64   Smallest eigenvalue:  0.10D+01
 Number of N-2 electron functions:      64
 Number of N-1 electron functions:       8

 Number of internal configurations:                    1
 Number of singly external configurations:            48
 Number of doubly external configurations:          5616
 Total number of contracted configurations:         5665
 Total number of uncontracted configurations:       5665

 Diagonal Coupling coefficients finished.               Storage:    4075 words, CPU-Time:      0.00 seconds.
 Energy denominators for pairs finished in 1 passes.    Storage:    6571 words, CPU-time:      0.00 seconds.

  ITER. STATE  ROOT     SQ.NORM     CORR.ENERGY   TOTAL ENERGY   ENERGY CHANGE       DEN1      VAR(S)    VAR(P)      TIME
    1     1     1     1.00000000     0.00000000 -1053.60126906    -0.00000000    -0.33244781  0.13D-10  0.12D+00     0.01
    2     1     1     1.09869956    -0.30323587 -1053.90450494    -0.30323587    -0.00246198  0.12D-03  0.71D-03     0.02
    3     1     1     1.09925776    -0.30602576 -1053.90729482    -0.00278989    -0.00011914  0.51D-05  0.38D-04     0.03
    4     1     1     1.09966004    -0.30613792 -1053.90740698    -0.00011216    -0.00000411  0.29D-06  0.12D-05     0.03
    5     1     1     1.09977959    -0.30614220 -1053.90741127    -0.00000428    -0.00000019  0.27D-07  0.52D-07     0.04
    6     1     1     1.09979063    -0.30614241 -1053.90741147    -0.00000020    -0.00000001  0.93D-09  0.16D-08     0.04


 =====================================
 Analysis of CPU times by interactions
 =====================================

       I      S      P

 I   0.0%
 S   0.0%   0.0%
 P   0.0%   0.0%  25.0%

 Initialization:  25.0%
 Other:           50.0%

 Total CPU:        0.0 seconds
 =====================================



 Reference coefficients greater than 0.0500000
 =============================================
 22222222           0.9535533



 RESULTS FOR STATE 1.1
 =====================

 Coefficient of reference function:   C(0) = 0.95355334 (fixed)   0.95355334 (relaxed)

 Energy contributions of configuration classes

 CLASS          SQ.NORM        ECORR1        ECORR2
 +++++++++++++++++++++++++++++++++++++++++++++++++++
 Internals    0.00000000    0.00000000   -0.00000000
 Singles      0.00016693    0.00000000   -0.00004635
 Pairs        0.09962370   -0.30614241   -0.30609605
 Total        1.09979063   -0.30614241   -0.30614241
 +++++++++++++++++++++++++++++++++++++++++++++++++++


 Reference energy                   -1053.60126906
 Nuclear energy                        47.62594881
 Kinetic energy                      1053.46356023
 One electron energy                -1551.07449549
 Two electron energy                  449.54113521
 Virial quotient                       -1.00042133
 Correlation energy                    -0.30614241
 !CI(SD) STATE 1.1 Energy           -1053.907411471460

 !CI(SD) STATE 1.1 Dipole moment        0.00000000     0.00000000     0.00000000
 Dipole moment /Debye                   0.00000000     0.00000000     0.00000000

 Cluster corrected energies         -1053.93796161 (Davidson, fixed reference)
 Cluster corrected energies         -1053.93796161 (Davidson, relaxed reference)

 Cluster corrected energies         -1053.93626868 (Pople, fixed reference)
 Cluster corrected energies         -1053.93626868 (Pople, relaxed reference)



 **********************************************************************************************************************************
 DATASETS  * FILE   NREC   LENGTH (MB)   RECORD NAMES
              1      20        3.55       500      610      700      900      950      970     1000      129      960     1100   
                                          VAR    BASINP    GEOM    SYMINP    ZMAT    AOBASIS   BASIS     P2S    ABASIS      S 
                                         1400     1410     1200     1210     1080     1600     1650     1300     1700     1380   
                                           T        V       H0       H01     AOSYM     SMH    MOLCAS    ERIS     OPER     JKOP   

              2       3        0.28       700     1000     2100   
                                         GEOM     BASIS     RHF  

 PROGRAMS   *        TOTAL        CI        HF       INT        CI        HF       INT        CI        HF       INT        CI
 CPU TIMES  *         0.74      0.06      0.00      0.12      0.05      0.01      0.11      0.05      0.01      0.12      0.05
 REAL TIME  *         0.85 SEC
 DISK USED  *         9.91 MB      
 GA USED    *         0.00 MB       (max)       0.00 MB       (current)
 **********************************************************************************************************************************
 SETTING E(4)           =     -1053.90741147  AU                              

 DO I                   =         5.00000000   
 SETTING R              =         3.70000000  ANGSTREM                        
 SETTING DIST(5)        =         3.70000000  ANGSTREM                        


 Recomputing integrals since geometry changed

1PROGRAM * SEWARD (Integral evaluation for generally contracted gaussian basis sets)     Author: Roland Lindh, 1990

 Geometry written to block  1 of record 700

 Orientation using atomic masses  
 Molecule type: Linear
 Symmetry elements: X,Y,Z
 Rotational constants:       1.8481988      1.8481988      0.0000000 GHz  (calculated with average atomic masses)

 Point group  D2h 



 ATOMIC COORDINATES

 NR  ATOM    CHARGE       X              Y              Z

   1  AR     18.00    0.000000000    0.000000000   -3.495993343
   2  AR     18.00    0.000000000    0.000000000    3.495993343

 NUCLEAR CHARGE:                   36
 NUMBER OF PRIMITIVE AOS:         104
 NUMBER OF SYMMETRY AOS:          100
 NUMBER OF CONTRACTIONS:           54   (  13Ag  +   6B3u +   6B2u +   2B1g +  13B1u +   6B2g +   6B3g +   2Au  )
 NUMBER OF CORE ORBITALS:          10   (   3Ag  +   1B3u +   1B2u +   0B1g +   3B1u +   1B2g +   1B3g +   0Au  )
 NUMBER OF VALENCE ORBITALS:        8   (   2Ag  +   1B3u +   1B2u +   0B1g +   2B1u +   1B2g +   1B3g +   0Au  )


 NUCLEAR REPULSION ENERGY   46.33876100

 EXTRA SYMMETRY OF AOS IN SYMMETRY 1:   1 1 1 1 1 1 1 1 1 1   2 1 2
 EXTRA SYMMETRY OF AOS IN SYMMETRY 5:   1 1 1 1 1 1 1 1 1 1   2 1 2

 Eigenvalues of metric

         1 0.192E-01 0.958E-01 0.376E+00 0.410E+00 0.445E+00 0.658E+00 0.100E+01 0.100E+01
         2 0.105E+00 0.419E+00 0.718E+00 0.100E+01 0.161E+01 0.246E+01
         3 0.105E+00 0.419E+00 0.718E+00 0.100E+01 0.161E+01 0.246E+01
         4 0.410E+00 0.159E+01
         5 0.150E-01 0.840E-01 0.141E+00 0.380E+00 0.407E+00 0.507E+00 0.100E+01 0.100E+01
         6 0.979E-01 0.380E+00 0.486E+00 0.100E+01 0.157E+01 0.215E+01
         7 0.979E-01 0.380E+00 0.486E+00 0.100E+01 0.157E+01 0.215E+01
         8 0.407E+00 0.159E+01


 Contracted 2-electron integrals neglected if value below      1.0D-11
 AO integral compression algorithm  1   Integral accuracy      1.0D-11

     1.835 MB (compressed) written to integral file ( 53.1%)

     Node minimum: 1.835 MB, node maximum: 1.835 MB


 NUMBER OF SORTED TWO-ELECTRON INTEGRALS:     158516.     BUFFER LENGTH:  32768
 NUMBER OF SEGMENTS:   1  SEGMENT LENGTH:     158516      RECORD LENGTH: 524288

 Memory used in sort:       0.72 MW

 SORT1 READ      384136. AND WROTE      143884. INTEGRALS IN      1 RECORDS. CPU TIME:     0.01 SEC, REAL TIME:     0.01 SEC
 SORT2 READ      143884. AND WROTE      158516. INTEGRALS IN      7 RECORDS. CPU TIME:     0.02 SEC, REAL TIME:     0.03 SEC

 FILE SIZES:   FILE 1:     3.3 MBYTE,  FILE 4:     4.2 MBYTE,   TOTAL:      7.6 MBYTE

 OPERATOR DM      FOR CENTER  0  COORDINATES:    0.000000    0.000000    0.000000


 **********************************************************************************************************************************
 DATASETS  * FILE   NREC   LENGTH (MB)   RECORD NAMES
              1      19        3.34       500      610      700      900      950      970     1000      129      960     1100   
                                          VAR    BASINP    GEOM    SYMINP    ZMAT    AOBASIS   BASIS     P2S    ABASIS      S 
                                         1400     1410     1200     1210     1080     1600     1650     1300     1700   
                                           T        V       H0       H01     AOSYM     SMH    MOLCAS    ERIS     OPER   

              2       3        0.28       700     1000     2100   
                                         GEOM     BASIS     RHF  

 PROGRAMS   *        TOTAL       INT        CI        HF       INT        CI        HF       INT        CI        HF       INT
 CPU TIMES  *         0.85      0.11      0.06      0.00      0.12      0.05      0.01      0.11      0.05      0.01      0.12
 REAL TIME  *         0.97 SEC
 DISK USED  *         9.91 MB      
 GA USED    *         0.00 MB       (max)       0.00 MB       (current)
 **********************************************************************************************************************************

1PROGRAM * RHF-SCF (CLOSED SHELL)       Authors: W. Meyer, H.-J. Werner


 NUMBER OF ELECTRONS:      18+   18-
 CONVERGENCE THRESHOLDS:    1.00E-05 (Density)    1.00E-07 (Energy)
 MAX. NUMBER OF ITERATIONS:       60
 INTERPOLATION TYPE:            DIIS
 INTERPOLATION STEPS:              2 (START)      1 (STEP)
 LEVEL SHIFTS:                  0.00 (CLOSED)  0.00 (OPEN) 



 Molecular orbitals read from record     2100.2  Type=RHF/CANONICAL (state 1.1)

 Molecular orbital dump at record        2100.2

 ITERATION    DDIFF          GRAD             ENERGY        2-EL.EN.            DIPOLE MOMENTS         DIIS
    1      0.000D+00      0.000D+00     -1053.60148827    898.277196    0.00000    0.00000    0.00000    0
    2      0.000D+00      0.277D-03     -1053.60149217    898.277880    0.00000    0.00000    0.00000    1
    3      0.352D-03      0.232D-04     -1053.60149223    898.277424    0.00000    0.00000    0.00000    2
    4      0.489D-04      0.323D-05     -1053.60149224    898.277553    0.00000    0.00000    0.00000    3
    5      0.713D-05      0.572D-06     -1053.60149224    898.277516    0.00000    0.00000    0.00000    0

 Final occupancy:   5   2   2   0   5   2   2   0

 !RHF STATE 1.1 Energy              -1053.601492236375
 Nuclear energy                        46.33876100
 One-electron energy                -1549.07901121
 Two-electron energy                  449.13875797
 Virial quotient                       -0.99999038
 !RHF STATE 1.1 Dipole moment           0.00000000     0.00000000     0.00000000
 Dipole moment /Debye                   0.00000000     0.00000000     0.00000000

 Orbital energies:

         1.1          2.1          3.1          4.1          5.1          6.1          7.1
   -118.610198   -12.322387    -9.570970    -1.279573    -0.600620     0.146493     0.180499

         1.2          2.2          3.2          4.2
     -9.570976    -0.593225     0.137166     0.520299

         1.3          2.3          3.3          4.3
     -9.570976    -0.593225     0.137166     0.520299

         1.4          2.4
      0.538699     1.606624

         1.5          2.5          3.5          4.5          5.5          6.5          7.5
   -118.610198   -12.322396    -9.570971    -1.277791    -0.583685     0.132654     0.276775

         1.6          2.6          3.6          4.6
     -9.570976    -0.590802     0.174484     0.572252

         1.7          2.7          3.7          4.7
     -9.570976    -0.590802     0.174484     0.572252

         1.8          2.8
      0.544307     1.614317


 **********************************************************************************************************************************
 DATASETS  * FILE   NREC   LENGTH (MB)   RECORD NAMES
              1      19        3.34       500      610      700      900      950      970     1000      129      960     1100   
                                          VAR    BASINP    GEOM    SYMINP    ZMAT    AOBASIS   BASIS     P2S    ABASIS      S 
                                         1400     1410     1200     1210     1080     1600     1650     1300     1700   
                                           T        V       H0       H01     AOSYM     SMH    MOLCAS    ERIS     OPER   

              2       3        0.28       700     1000     2100   
                                         GEOM     BASIS     RHF  

 PROGRAMS   *        TOTAL        HF       INT        CI        HF       INT        CI        HF       INT        CI        HF
 CPU TIMES  *         0.86      0.01      0.11      0.06      0.00      0.12      0.05      0.01      0.11      0.05      0.01
 REAL TIME  *         0.98 SEC
 DISK USED  *         9.91 MB      
 GA USED    *         0.00 MB       (max)       0.00 MB       (current)
 **********************************************************************************************************************************

1PROGRAM * CI (Multireference internally contracted CI)     Authors: H.-J. Werner, P.J. Knowles, 1987


 Convergence thresholds:  THRVAR = 1.00D-08  THRDEN = 1.00D-06

 Number of optimized states:  1  Roots:   1
 Number of reference states:  1  Roots:   1

 Reference symmetry:                   1   Singlet 
 Number of electrons:                 36
 Maximum number of shells:             3
 Maximum number of spin couplings:     2

 Reference space:        1 conf        1 CSFs
 N elec internal:        1 conf        1 CSFs
 N-1 el internal:        8 conf        8 CSFs
 N-2 el internal:       36 conf       64 CSFs

 Number of electrons in valence space:                     16
 Maximum number of open shell orbitals in reference space:  0
 Maximum number of open shell orbitals in internal spaces:  4


 Number of core orbitals:          10 (   3   1   1   0   3   1   1   0 )
 Number of closed-shell orbitals:   8 (   2   1   1   0   2   1   1   0 )
 Number of external orbitals:      36 (   8   4   4   2   8   4   4   2 )

 Molecular orbitals read from record     2100.2  Type=RHF/CANONICAL (state 1.1)

 Integral transformation finished. Total CPU:   0.01 sec, npass=  1  Memory used:   0.08 MW

 Number of p-space configurations:   1

 Reference wavefunction optimized for reference space (refopt=1)

 State     Reference Energy 
   1       -1053.60149224

 Number of blocks in overlap matrix:    64   Smallest eigenvalue:  0.10D+01
 Number of N-2 electron functions:      64
 Number of N-1 electron functions:       8

 Number of internal configurations:                    1
 Number of singly external configurations:            48
 Number of doubly external configurations:          5616
 Total number of contracted configurations:         5665
 Total number of uncontracted configurations:       5665

 Diagonal Coupling coefficients finished.               Storage:    4075 words, CPU-Time:      0.00 seconds.
 Energy denominators for pairs finished in 1 passes.    Storage:    6571 words, CPU-time:      0.00 seconds.

  ITER. STATE  ROOT     SQ.NORM     CORR.ENERGY   TOTAL ENERGY   ENERGY CHANGE       DEN1      VAR(S)    VAR(P)      TIME
    1     1     1     1.00000000     0.00000000 -1053.60149224     0.00000000    -0.33185114  0.84D-11  0.12D+00     0.01
    2     1     1     1.09867142    -0.30315873 -1053.90465097    -0.30315873    -0.00244609  0.11D-03  0.70D-03     0.02
    3     1     1     1.09924552    -0.30593362 -1053.90742586    -0.00277489    -0.00012031  0.49D-05  0.39D-04     0.02
    4     1     1     1.09964535    -0.30604643 -1053.90753867    -0.00011281    -0.00000415  0.29D-06  0.12D-05     0.03
    5     1     1     1.09976578    -0.30605077 -1053.90754300    -0.00000433    -0.00000019  0.27D-07  0.52D-07     0.04
    6     1     1     1.09977694    -0.30605097 -1053.90754321    -0.00000021    -0.00000001  0.89D-09  0.16D-08     0.04


 =====================================
 Analysis of CPU times by interactions
 =====================================

       I      S      P

 I   0.0%
 S   0.0%   0.0%
 P   0.0%   0.0%  75.0%

 Initialization:  25.0%
 Other:            0.0%

 Total CPU:        0.0 seconds
 =====================================



 Reference coefficients greater than 0.0500000
 =============================================
 22222222           0.9535593



 RESULTS FOR STATE 1.1
 =====================

 Coefficient of reference function:   C(0) = 0.95355928 (fixed)   0.95355928 (relaxed)

 Energy contributions of configuration classes

 CLASS          SQ.NORM        ECORR1        ECORR2
 +++++++++++++++++++++++++++++++++++++++++++++++++++
 Internals    0.00000000    0.00000000    0.00000000
 Singles      0.00016528   -0.00000000   -0.00004590
 Pairs        0.09961165   -0.30605097   -0.30600508
 Total        1.09977694   -0.30605097   -0.30605097
 +++++++++++++++++++++++++++++++++++++++++++++++++++


 Reference energy                   -1053.60149224
 Nuclear energy                        46.33876100
 Kinetic energy                      1053.46146257
 One electron energy                -1548.49830393
 Two electron energy                  448.25199972
 Virial quotient                       -1.00042344
 Correlation energy                    -0.30605097
 !CI(SD) STATE 1.1 Energy           -1053.907543211367

 !CI(SD) STATE 1.1 Dipole moment        0.00000000     0.00000000     0.00000000
 Dipole moment /Debye                   0.00000000     0.00000000     0.00000000

 Cluster corrected energies         -1053.93808004 (Davidson, fixed reference)
 Cluster corrected energies         -1053.93808004 (Davidson, relaxed reference)

 Cluster corrected energies         -1053.93638753 (Pople, fixed reference)
 Cluster corrected energies         -1053.93638753 (Pople, relaxed reference)



 **********************************************************************************************************************************
 DATASETS  * FILE   NREC   LENGTH (MB)   RECORD NAMES
              1      20        3.55       500      610      700      900      950      970     1000      129      960     1100   
                                          VAR    BASINP    GEOM    SYMINP    ZMAT    AOBASIS   BASIS     P2S    ABASIS      S 
                                         1400     1410     1200     1210     1080     1600     1650     1300     1700     1380   
                                           T        V       H0       H01     AOSYM     SMH    MOLCAS    ERIS     OPER     JKOP   

              2       3        0.28       700     1000     2100   
                                         GEOM     BASIS     RHF  

 PROGRAMS   *        TOTAL        CI        HF       INT        CI        HF       INT        CI        HF       INT        CI
 CPU TIMES  *         0.92      0.06      0.01      0.11      0.06      0.00      0.12      0.05      0.01      0.11      0.05
 REAL TIME  *         1.04 SEC
 DISK USED  *         9.91 MB      
 GA USED    *         0.00 MB       (max)       0.00 MB       (current)
 **********************************************************************************************************************************
 SETTING E(5)           =     -1053.90754321  AU                              

 DO I                   =         6.00000000   
 SETTING R              =         3.80000000  ANGSTREM                        
 SETTING DIST(6)        =         3.80000000  ANGSTREM                        


 Recomputing integrals since geometry changed

1PROGRAM * SEWARD (Integral evaluation for generally contracted gaussian basis sets)     Author: Roland Lindh, 1990

 Geometry written to block  1 of record 700

 Orientation using atomic masses  
 Molecule type: Linear
 Symmetry elements: X,Y,Z
 Rotational constants:       1.7522051      1.7522051      0.0000000 GHz  (calculated with average atomic masses)

 Point group  D2h 



 ATOMIC COORDINATES

 NR  ATOM    CHARGE       X              Y              Z

   1  AR     18.00    0.000000000    0.000000000   -3.590479650
   2  AR     18.00    0.000000000    0.000000000    3.590479650

 NUCLEAR CHARGE:                   36
 NUMBER OF PRIMITIVE AOS:         104
 NUMBER OF SYMMETRY AOS:          100
 NUMBER OF CONTRACTIONS:           54   (  13Ag  +   6B3u +   6B2u +   2B1g +  13B1u +   6B2g +   6B3g +   2Au  )
 NUMBER OF CORE ORBITALS:          10   (   3Ag  +   1B3u +   1B2u +   0B1g +   3B1u +   1B2g +   1B3g +   0Au  )
 NUMBER OF VALENCE ORBITALS:        8   (   2Ag  +   1B3u +   1B2u +   0B1g +   2B1u +   1B2g +   1B3g +   0Au  )


 NUCLEAR REPULSION ENERGY   45.11931993

 EXTRA SYMMETRY OF AOS IN SYMMETRY 1:   1 1 1 1 1 1 1 1 1 1   2 1 2
 EXTRA SYMMETRY OF AOS IN SYMMETRY 5:   1 1 1 1 1 1 1 1 1 1   2 1 2

 Eigenvalues of metric

         1 0.193E-01 0.955E-01 0.376E+00 0.410E+00 0.439E+00 0.672E+00 0.100E+01 0.100E+01
         2 0.105E+00 0.416E+00 0.714E+00 0.100E+01 0.160E+01 0.245E+01
         3 0.105E+00 0.416E+00 0.714E+00 0.100E+01 0.160E+01 0.245E+01
         4 0.410E+00 0.159E+01
         5 0.152E-01 0.855E-01 0.152E+00 0.385E+00 0.408E+00 0.504E+00 0.100E+01 0.100E+01
         6 0.981E-01 0.386E+00 0.492E+00 0.100E+01 0.158E+01 0.216E+01
         7 0.981E-01 0.386E+00 0.492E+00 0.100E+01 0.158E+01 0.216E+01
         8 0.408E+00 0.159E+01


 Contracted 2-electron integrals neglected if value below      1.0D-11
 AO integral compression algorithm  1   Integral accuracy      1.0D-11

     1.835 MB (compressed) written to integral file ( 52.9%)

     Node minimum: 1.835 MB, node maximum: 1.835 MB


 NUMBER OF SORTED TWO-ELECTRON INTEGRALS:     158516.     BUFFER LENGTH:  32768
 NUMBER OF SEGMENTS:   1  SEGMENT LENGTH:     158516      RECORD LENGTH: 524288

 Memory used in sort:       0.72 MW

 SORT1 READ      384136. AND WROTE      143866. INTEGRALS IN      1 RECORDS. CPU TIME:     0.00 SEC, REAL TIME:     0.01 SEC
 SORT2 READ      143866. AND WROTE      158516. INTEGRALS IN      7 RECORDS. CPU TIME:     0.03 SEC, REAL TIME:     0.03 SEC

 FILE SIZES:   FILE 1:     3.3 MBYTE,  FILE 4:     4.2 MBYTE,   TOTAL:      7.6 MBYTE

 OPERATOR DM      FOR CENTER  0  COORDINATES:    0.000000    0.000000    0.000000


 **********************************************************************************************************************************
 DATASETS  * FILE   NREC   LENGTH (MB)   RECORD NAMES
              1      19        3.34       500      610      700      900      950      970     1000      129      960     1100   
                                          VAR    BASINP    GEOM    SYMINP    ZMAT    AOBASIS   BASIS     P2S    ABASIS      S 
                                         1400     1410     1200     1210     1080     1600     1650     1300     1700   
                                           T        V       H0       H01     AOSYM     SMH    MOLCAS    ERIS     OPER   

              2       3        0.28       700     1000     2100   
                                         GEOM     BASIS     RHF  

 PROGRAMS   *        TOTAL       INT        CI        HF       INT        CI        HF       INT        CI        HF       INT
 CPU TIMES  *         1.03      0.11      0.06      0.01      0.11      0.06      0.00      0.12      0.05      0.01      0.11
 REAL TIME  *         1.16 SEC
 DISK USED  *         9.91 MB      
 GA USED    *         0.00 MB       (max)       0.00 MB       (current)
 **********************************************************************************************************************************

1PROGRAM * RHF-SCF (CLOSED SHELL)       Authors: W. Meyer, H.-J. Werner


 NUMBER OF ELECTRONS:      18+   18-
 CONVERGENCE THRESHOLDS:    1.00E-05 (Density)    1.00E-07 (Energy)
 MAX. NUMBER OF ITERATIONS:       60
 INTERPOLATION TYPE:            DIIS
 INTERPOLATION STEPS:              2 (START)      1 (STEP)
 LEVEL SHIFTS:                  0.00 (CLOSED)  0.00 (OPEN) 



 Molecular orbitals read from record     2100.2  Type=RHF/CANONICAL (state 1.1)

 Molecular orbital dump at record        2100.2

 ITERATION    DDIFF          GRAD             ENERGY        2-EL.EN.            DIPOLE MOMENTS         DIIS
    1      0.000D+00      0.000D+00     -1053.60164482    895.835398    0.00000    0.00000    0.00000    0
    2      0.000D+00      0.245D-03     -1053.60164761    895.834074    0.00000    0.00000    0.00000    1
    3      0.286D-03      0.187D-04     -1053.60164766    895.834197    0.00000    0.00000    0.00000    2
    4      0.381D-04      0.272D-05     -1053.60164766    895.834134    0.00000    0.00000    0.00000    3
    5      0.594D-05      0.459D-06     -1053.60164766    895.834164    0.00000    0.00000    0.00000    0

 Final occupancy:   5   2   2   0   5   2   2   0

 !RHF STATE 1.1 Energy              -1053.601647657276
[...]
    1     1     1     1.00000000     0.00000000 -1053.60194498    -0.00000000    -0.32275051  0.22D-13  0.11D+00     0.01
    2     1     1     1.09827232    -0.30267361 -1053.90461859    -0.30267361    -0.00235764  0.10D-03  0.66D-03     0.02
    3     1     1     1.09912563    -0.30534470 -1053.90728967    -0.00267109    -0.00016334  0.36D-05  0.54D-04     0.03
    4     1     1     1.09952095    -0.30549103 -1053.90743600    -0.00014633    -0.00000550  0.42D-06  0.15D-05     0.03
    5     1     1     1.09965514    -0.30549687 -1053.90744184    -0.00000584    -0.00000026  0.34D-07  0.71D-07     0.04
    6     1     1     1.09966943    -0.30549715 -1053.90744212    -0.00000028    -0.00000001  0.70D-09  0.31D-08     0.05


 =====================================
 Analysis of CPU times by interactions
 =====================================

       I      S      P

 I   0.0%
 S   0.0%  20.0%
 P   0.0%  20.0%  40.0%

 Initialization:  20.0%
 Other:            0.0%

 Total CPU:        0.0 seconds
 =====================================



 Reference coefficients greater than 0.0500000
 =============================================
 22222222           0.9536059



 RESULTS FOR STATE 1.1
 =====================

 Coefficient of reference function:   C(0) = 0.95360589 (fixed)   0.95360589 (relaxed)

 Energy contributions of configuration classes

 CLASS          SQ.NORM        ECORR1        ECORR2
 +++++++++++++++++++++++++++++++++++++++++++++++++++
 Internals    0.00000000    0.00000000    0.00000000
 Singles      0.00015515    0.00000000   -0.00004320
 Pairs        0.09951428   -0.30549715   -0.30545395
 Total        1.09966943   -0.30549715   -0.30549715
 +++++++++++++++++++++++++++++++++++++++++++++++++++


 Reference energy                   -1053.60194498
 Nuclear energy                        23.16938050
 Kinetic energy                      1053.46182122
 One electron energy                -1502.15413426
 Two electron energy                  425.07731164
 Virial quotient                       -1.00042301
 Correlation energy                    -0.30549715
 !CI(SD) STATE 1.1 Energy           -1053.907442122109

 !CI(SD) STATE 1.1 Dipole moment        0.00000000     0.00000000     0.00000000
 Dipole moment /Debye                   0.00000000     0.00000000     0.00000000

 Cluster corrected energies         -1053.93789085 (Davidson, fixed reference)
 Cluster corrected energies         -1053.93789085 (Davidson, relaxed reference)

 Cluster corrected energies         -1053.93620080 (Pople, fixed reference)
 Cluster corrected energies         -1053.93620080 (Pople, relaxed reference)



 **********************************************************************************************************************************
 DATASETS  * FILE   NREC   LENGTH (MB)   RECORD NAMES
              1      20        3.53       500      610      700      900      950      970     1000      129      960     1100   
                                          VAR    BASINP    GEOM    SYMINP    ZMAT    AOBASIS   BASIS     P2S    ABASIS      S 
                                         1400     1410     1200     1210     1080     1600     1650     1300     1700     1380   
                                           T        V       H0       H01     AOSYM     SMH    MOLCAS    ERIS     OPER     JKOP   

              2       3        0.28       700     1000     2100   
                                         GEOM     BASIS     RHF  

 PROGRAMS   *        TOTAL        CI        HF       INT        CI        HF       INT        CI        HF       INT        CI
 CPU TIMES  *         6.85      0.06      0.00      0.10      0.04      0.01      0.10      0.04      0.01      0.09      0.05
 REAL TIME  *         7.66 SEC
 DISK USED  *         9.91 MB      
 GA USED    *         0.00 MB       (max)       0.00 MB       (current)
 **********************************************************************************************************************************
 SETTING E(42)          =     -1053.90744212  AU                              

 DO I                   =        43.00000000   
 SETTING R              =         7.50000000  ANGSTREM                        
 SETTING DIST(43)       =         7.50000000  ANGSTREM                        


 Recomputing integrals since geometry changed

1PROGRAM * SEWARD (Integral evaluation for generally contracted gaussian basis sets)     Author: Roland Lindh, 1990

 Geometry written to block  1 of record 700

 Orientation using atomic masses  
 Molecule type: Linear
 Symmetry elements: X,Y,Z
 Rotational constants:       0.4498105      0.4498105      0.0000000 GHz  (calculated with average atomic masses)

 Point group  D2h 



 ATOMIC COORDINATES

 NR  ATOM    CHARGE       X              Y              Z

   1  AR     18.00    0.000000000    0.000000000   -7.086472993
   2  AR     18.00    0.000000000    0.000000000    7.086472993

 NUCLEAR CHARGE:                   36
 NUMBER OF PRIMITIVE AOS:         104
 NUMBER OF SYMMETRY AOS:          100
 NUMBER OF CONTRACTIONS:           54   (  13Ag  +   6B3u +   6B2u +   2B1g +  13B1u +   6B2g +   6B3g +   2Au  )
 NUMBER OF CORE ORBITALS:          10   (   3Ag  +   1B3u +   1B2u +   0B1g +   3B1u +   1B2g +   1B3g +   0Au  )
 NUMBER OF VALENCE ORBITALS:        8   (   2Ag  +   1B3u +   1B2u +   0B1g +   2B1u +   1B2g +   1B3g +   0Au  )


 NUCLEAR REPULSION ENERGY   22.86045543

 EXTRA SYMMETRY OF AOS IN SYMMETRY 1:   1 1 1 1 1 1 1 1 1 1   2 1 2
 EXTRA SYMMETRY OF AOS IN SYMMETRY 5:   1 1 1 1 1 1 1 1 1 1   2 1 2

 Eigenvalues of metric

         1 0.192E-01 0.106E+00 0.363E+00 0.409E+00 0.409E+00 0.639E+00 0.100E+01 0.100E+01
         2 0.104E+00 0.409E+00 0.612E+00 0.100E+01 0.159E+01 0.229E+01
         3 0.104E+00 0.409E+00 0.612E+00 0.100E+01 0.159E+01 0.229E+01
         4 0.409E+00 0.159E+01
         5 0.191E-01 0.101E+00 0.362E+00 0.409E+00 0.409E+00 0.580E+00 0.100E+01 0.100E+01
         6 0.103E+00 0.409E+00 0.606E+00 0.100E+01 0.159E+01 0.229E+01
         7 0.103E+00 0.409E+00 0.606E+00 0.100E+01 0.159E+01 0.229E+01
         8 0.409E+00 0.159E+01


 Contracted 2-electron integrals neglected if value below      1.0D-11
 AO integral compression algorithm  1   Integral accuracy      1.0D-11

     1.573 MB (compressed) written to integral file ( 56.8%)

     Node minimum: 1.573 MB, node maximum: 1.573 MB


 NUMBER OF SORTED TWO-ELECTRON INTEGRALS:     158516.     BUFFER LENGTH:  32768
 NUMBER OF SEGMENTS:   1  SEGMENT LENGTH:     158516      RECORD LENGTH: 524288

 Memory used in sort:       0.72 MW

 SORT1 READ      384136. AND WROTE      143246. INTEGRALS IN      1 RECORDS. CPU TIME:     0.01 SEC, REAL TIME:     0.01 SEC
 SORT2 READ      143246. AND WROTE      158516. INTEGRALS IN      6 RECORDS. CPU TIME:     0.03 SEC, REAL TIME:     0.02 SEC

 FILE SIZES:   FILE 1:     3.3 MBYTE,  FILE 4:     4.2 MBYTE,   TOTAL:      7.5 MBYTE

 OPERATOR DM      FOR CENTER  0  COORDINATES:    0.000000    0.000000    0.000000


 **********************************************************************************************************************************
 DATASETS  * FILE   NREC   LENGTH (MB)   RECORD NAMES
              1      19        3.32       500      610      700      900      950      970     1000      129      960     1100   
                                          VAR    BASINP    GEOM    SYMINP    ZMAT    AOBASIS   BASIS     P2S    ABASIS      S 
                                         1400     1410     1200     1210     1080     1600     1650     1300     1700   
                                           T        V       H0       H01     AOSYM     SMH    MOLCAS    ERIS     OPER   

              2       3        0.28       700     1000     2100   
                                         GEOM     BASIS     RHF  

 PROGRAMS   *        TOTAL       INT        CI        HF       INT        CI        HF       INT        CI        HF       INT
 CPU TIMES  *         6.94      0.09      0.06      0.00      0.10      0.04      0.01      0.10      0.04      0.01      0.09
 REAL TIME  *         7.76 SEC
 DISK USED  *         9.91 MB      
 GA USED    *         0.00 MB       (max)       0.00 MB       (current)
 **********************************************************************************************************************************

1PROGRAM * RHF-SCF (CLOSED SHELL)       Authors: W. Meyer, H.-J. Werner


 NUMBER OF ELECTRONS:      18+   18-
 CONVERGENCE THRESHOLDS:    1.00E-05 (Density)    1.00E-07 (Energy)
 MAX. NUMBER OF ITERATIONS:       60
 INTERPOLATION TYPE:            DIIS
 INTERPOLATION STEPS:              2 (START)      1 (STEP)
 LEVEL SHIFTS:                  0.00 (CLOSED)  0.00 (OPEN) 



 Molecular orbitals read from record     2100.2  Type=RHF/CANONICAL (state 1.1)

 Molecular orbital dump at record        2100.2

 ITERATION    DDIFF          GRAD             ENERGY        2-EL.EN.            DIPOLE MOMENTS         DIIS
    1      0.000D+00      0.000D+00     -1053.60194494    851.299435    0.00000    0.00000    0.00000    0
    2      0.000D+00      0.133D-04     -1053.60194495    851.299438    0.00000    0.00000    0.00000    1
    3      0.462D-05      0.102D-06     -1053.60194495    851.299438    0.00000    0.00000    0.00000    0

 Final occupancy:   5   2   2   0   5   2   2   0

 !RHF STATE 1.1 Energy              -1053.601944945434
 Nuclear energy                        22.86045543
 One-electron energy                -1502.11211931
 Two-electron energy                  425.64971894
 Virial quotient                       -0.99999217
 !RHF STATE 1.1 Dipole moment           0.00000000     0.00000000     0.00000000
 Dipole moment /Debye                   0.00000000     0.00000000     0.00000000

 Orbital energies:

         1.1          2.1          3.1          4.1          5.1          6.1          7.1
   -118.610581   -12.322798    -9.571364    -1.278899    -0.592274     0.134974     0.161963

         1.2          2.2          3.2          4.2
     -9.571364    -0.592268     0.147834     0.541381

         1.3          2.3          3.3          4.3
     -9.571364    -0.592268     0.147834     0.541381

         1.4          2.4
      0.541381     1.610219

         1.5          2.5          3.5          4.5          5.5          6.5          7.5
   -118.610581   -12.322798    -9.571364    -1.278899    -0.592260     0.158694     0.170103

         1.6          2.6          3.6          4.6
     -9.571364    -0.592267     0.151786     0.541381

         1.7          2.7          3.7          4.7
     -9.571364    -0.592267     0.151786     0.541381

         1.8          2.8
      0.541381     1.610219


 **********************************************************************************************************************************
 DATASETS  * FILE   NREC   LENGTH (MB)   RECORD NAMES
              1      19        3.32       500      610      700      900      950      970     1000      129      960     1100   
                                          VAR    BASINP    GEOM    SYMINP    ZMAT    AOBASIS   BASIS     P2S    ABASIS      S 
                                         1400     1410     1200     1210     1080     1600     1650     1300     1700   
                                           T        V       H0       H01     AOSYM     SMH    MOLCAS    ERIS     OPER   

              2       3        0.28       700     1000     2100   
                                         GEOM     BASIS     RHF  

 PROGRAMS   *        TOTAL        HF       INT        CI        HF       INT        CI        HF       INT        CI        HF
 CPU TIMES  *         6.94      0.00      0.09      0.06      0.00      0.10      0.04      0.01      0.10      0.04      0.01
 REAL TIME  *         7.76 SEC
 DISK USED  *         9.91 MB      
 GA USED    *         0.00 MB       (max)       0.00 MB       (current)
 **********************************************************************************************************************************

1PROGRAM * CI (Multireference internally contracted CI)     Authors: H.-J. Werner, P.J. Knowles, 1987


 Convergence thresholds:  THRVAR = 1.00D-08  THRDEN = 1.00D-06

 Number of optimized states:  1  Roots:   1
 Number of reference states:  1  Roots:   1

 Reference symmetry:                   1   Singlet 
 Number of electrons:                 36
 Maximum number of shells:             3
 Maximum number of spin couplings:     2

 Reference space:        1 conf        1 CSFs
 N elec internal:        1 conf        1 CSFs
 N-1 el internal:        8 conf        8 CSFs
 N-2 el internal:       36 conf       64 CSFs

 Number of electrons in valence space:                     16
 Maximum number of open shell orbitals in reference space:  0
 Maximum number of open shell orbitals in internal spaces:  4


 Number of core orbitals:          10 (   3   1   1   0   3   1   1   0 )
 Number of closed-shell orbitals:   8 (   2   1   1   0   2   1   1   0 )
 Number of external orbitals:      36 (   8   4   4   2   8   4   4   2 )

 Molecular orbitals read from record     2100.2  Type=RHF/CANONICAL (state 1.1)

 Integral transformation finished. Total CPU:   0.00 sec, npass=  1  Memory used:   0.08 MW

 Number of p-space configurations:   1

 Reference wavefunction optimized for reference space (refopt=1)

 State     Reference Energy 
   1       -1053.60194495

 Number of blocks in overlap matrix:    64   Smallest eigenvalue:  0.10D+01
 Number of N-2 electron functions:      64
 Number of N-1 electron functions:       8

 Number of internal configurations:                    1
 Number of singly external configurations:            48
 Number of doubly external configurations:          5616
 Total number of contracted configurations:         5665
 Total number of uncontracted configurations:       5665

 Diagonal Coupling coefficients finished.               Storage:    4075 words, CPU-Time:      0.00 seconds.
 Energy denominators for pairs finished in 1 passes.    Storage:    6571 words, CPU-time:      0.00 seconds.

  ITER. STATE  ROOT     SQ.NORM     CORR.ENERGY   TOTAL ENERGY   ENERGY CHANGE       DEN1      VAR(S)    VAR(P)      TIME
    1     1     1     1.00000000     0.00000000 -1053.60194495    -0.00000000    -0.32263563  0.16D-13  0.11D+00     0.00
    2     1     1     1.09826765    -0.30267292 -1053.90461787    -0.30267292    -0.00235722  0.99D-04  0.66D-03     0.01
    3     1     1     1.09912498    -0.30534323 -1053.90728818    -0.00267031    -0.00016406  0.36D-05  0.54D-04     0.02
    4     1     1     1.09952062    -0.30549014 -1053.90743509    -0.00014691    -0.00000552  0.42D-06  0.15D-05     0.02
    5     1     1     1.09965498    -0.30549601 -1053.90744095    -0.00000586    -0.00000027  0.34D-07  0.72D-07     0.03
    6     1     1     1.09966931    -0.30549629 -1053.90744123    -0.00000028    -0.00000001  0.69D-09  0.31D-08     0.04


 =====================================
 Analysis of CPU times by interactions
 =====================================

       I      S      P

 I   0.0%
 S   0.0%   0.0%
 P   0.0%   0.0%  25.0%

 Initialization:   0.0%
 Other:           75.0%

 Total CPU:        0.0 seconds
 =====================================



 Reference coefficients greater than 0.0500000
 =============================================
 22222222           0.9536059



 RESULTS FOR STATE 1.1
 =====================

 Coefficient of reference function:   C(0) = 0.95360594 (fixed)   0.95360594 (relaxed)

 Energy contributions of configuration classes

 CLASS          SQ.NORM        ECORR1        ECORR2
 +++++++++++++++++++++++++++++++++++++++++++++++++++
 Internals    0.00000000    0.00000000    0.00000000
 Singles      0.00015514    0.00000000   -0.00004320
 Pairs        0.09951418   -0.30549629   -0.30545309
 Total        1.09966931   -0.30549629   -0.30549629
 +++++++++++++++++++++++++++++++++++++++++++++++++++


 Reference energy                   -1053.60194495
 Nuclear energy                        22.86045543
 Kinetic energy                      1053.46181764
 One electron energy                -1501.53629108
 Two electron energy                  424.76839442
 Virial quotient                       -1.00042301
 Correlation energy                    -0.30549629
 !CI(SD) STATE 1.1 Energy           -1053.907441234334

 !CI(SD) STATE 1.1 Dipole moment        0.00000000     0.00000000     0.00000000
 Dipole moment /Debye                   0.00000000     0.00000000     0.00000000

 Cluster corrected energies         -1053.93788984 (Davidson, fixed reference)
 Cluster corrected energies         -1053.93788984 (Davidson, relaxed reference)

 Cluster corrected energies         -1053.93619979 (Pople, fixed reference)
 Cluster corrected energies         -1053.93619979 (Pople, relaxed reference)



 **********************************************************************************************************************************
 DATASETS  * FILE   NREC   LENGTH (MB)   RECORD NAMES
              1      20        3.53       500      610      700      900      950      970     1000      129      960     1100   
                                          VAR    BASINP    GEOM    SYMINP    ZMAT    AOBASIS   BASIS     P2S    ABASIS      S 
                                         1400     1410     1200     1210     1080     1600     1650     1300     1700     1380   
                                           T        V       H0       H01     AOSYM     SMH    MOLCAS    ERIS     OPER     JKOP   

              2       3        0.28       700     1000     2100   
                                         GEOM     BASIS     RHF  

 PROGRAMS   *        TOTAL        CI        HF       INT        CI        HF       INT        CI        HF       INT        CI
 CPU TIMES  *         6.99      0.05      0.00      0.09      0.06      0.00      0.10      0.04      0.01      0.10      0.04
 REAL TIME  *         7.82 SEC
 DISK USED  *         9.91 MB      
 GA USED    *         0.00 MB       (max)       0.00 MB       (current)
 **********************************************************************************************************************************
 SETTING E(43)          =     -1053.90744123  AU                              
                                                                                                                                                                                                                                                                

   DIST         E
    3.3   -1053.906388
    3.4   -1053.906881
    3.5   -1053.907203
    3.6   -1053.907411
    3.7   -1053.907543
    3.8   -1053.907623
    3.9   -1053.907668
    4.0   -1053.907689
    4.1   -1053.907694
    4.2   -1053.907689
    4.3   -1053.907677
    4.4   -1053.907662
    4.5   -1053.907645
    4.6   -1053.907628
    4.7   -1053.907611
    4.8   -1053.907595
    4.9   -1053.907580
    5.0   -1053.907567
    5.1   -1053.907554
    5.2   -1053.907542
    5.3   -1053.907532
    5.4   -1053.907522
    5.5   -1053.907513
    5.6   -1053.907505
    5.7   -1053.907497
    5.8   -1053.907490
    5.9   -1053.907484
    6.0   -1053.907479
    6.1   -1053.907474
    6.2   -1053.907469
    6.3   -1053.907465
    6.4   -1053.907462
    6.5   -1053.907458
    6.6   -1053.907456
    6.7   -1053.907453
    6.8   -1053.907451
    6.9   -1053.907449
    7.0   -1053.907447
    7.1   -1053.907446
    7.2   -1053.907444
    7.3   -1053.907443
    7.4   -1053.907442
    7.5   -1053.907441
                                                  

        CI              HF-SCF          CI              HF-SCF          CI              HF-SCF          CI              HF-SCF  
  -1053.90744123  -1053.60194495  -1053.90744212  -1053.60194498  -1053.90744314  -1053.60194501  -1053.90744430  -1053.60194506
 **********************************************************************************************************************************
 Variable memory released
