
 Primary working directories    : /mnt/SSD/student17
 Secondary working directories  : /mnt/SSD/student17
 Wavefunction directory         : /home/student17/wfu/
 Main file repository           : /mnt/SSD/student17/

 ARCHNAME  : Linux/x86_64
 FC        : /usr/bin/gfortran
 FCVERSION : 4.7.2
 BLASLIB   : -L/opt/intel/mkl/lib/intel64 -lmkl_intel_ilp64 -lmkl_sequential -lmkl_core
 id        : plat

 Nodes     nprocs
 debserv      1
 ga_uses_ma=false, calling ma_init with nominal heap.
 GA-space will be limited to   8.0 MW (determined by -G option)

 Using customized tuning parameters: mindgm=12; mindgv=24; mindgc=8; mindgr=1; noblas=0; mincuda=1000; minvec=7
 default implementation of scratch files=df  

 ***,Ar-Ar
 
                                                                                 ! basis = aug-cc-pvqz ! basis set
 basis = aug-cc-pvdz
 
 geometry = {
 Ar1;
 Ar2, Ar1, r}
 
 r_min = 3.30, angstrem
 r_max = 7.50, angstrem
 n = 43
 
 do i=1, n
 r = r_min + (r_max - r_min)/(n-1) * (i-1)
 dist(i) = r
 
                                                                                 ! hartree fock
 hf
 ccsd(t)
 e_complex = energy
 
 text, energy of Ar1
 dummy, Ar1
 hf
 ccsd(t)
 e_ar1 = energy
 
 text, energy of Ar2
 dummy, Ar2
 hf
 ccsd(t)
 e_ar2 = energy
 
 e(i) = e_complex - e_ar1 - e_ar2
 
 enddo
 
 table dist, e
 save ar2.tab, new

 Variables initialized (661), CPU time= 0.00 sec
 Commands  initialized (460), CPU time= 0.00 sec, 486 directives.
 Default parameters read. Elapsed time= 0.03 sec

 Checking input...
 Passed
1


                                         ***  PROGRAM SYSTEM MOLPRO  ***
                         Copyright, University College Cardiff Consultants Limited, 2008

                                    Version 2010.1 linked 30 Ноя 2013 12:52


 **********************************************************************************************************************************
 LABEL *   Ar-Ar                                                                         
 Linux-3.2.0-4-amd64/debserv(x86_64) 64 bit mpp version                                  DATE: 04-Jun-17          TIME: 14:31:16  
 **********************************************************************************************************************************

 SHA1:             fd122acbd35ef3619fab5330ac0556b6c1fa4be2
 **********************************************************************************************************************************

 Variable memory set to    8000000 words,  buffer space   230000 words

 SETTING BASIS          =    AUG-CC-PVDZ
 SETTING R_MIN          =         3.30000000  ANGSTREM                        
 SETTING R_MAX          =         7.50000000  ANGSTREM                        
 SETTING N              =        43.00000000                                  

 DO I                   =         1.00000000   
 SETTING R              =         3.30000000  ANGSTREM                        
 SETTING DIST(1)        =         3.30000000  ANGSTREM                        


 Recomputing integrals since basis changed


 Using spherical harmonics

 Library entry AR     S aug-cc-pVDZ          selected for orbital group  1
 Library entry AR     P aug-cc-pVDZ          selected for orbital group  1
 Library entry AR     D aug-cc-pVDZ          selected for orbital group  1

1PROGRAM * SEWARD (Integral evaluation for generally contracted gaussian basis sets)     Author: Roland Lindh, 1990

 Geometry written to block  1 of record 700

 Orientation using atomic masses  
 Molecule type: Linear
 Symmetry elements: X,Y,Z
 Rotational constants:       2.3234015      2.3234015      0.0000000 GHz  (calculated with average atomic masses)

 Point group  D2h 



 ATOMIC COORDINATES

 NR  ATOM    CHARGE       X              Y              Z

   1  AR1    18.00    0.000000000    0.000000000   -3.118048117
   2  AR2    18.00    0.000000000    0.000000000    3.118048117

 NUCLEAR CHARGE:                   36
 NUMBER OF PRIMITIVE AOS:         104
 NUMBER OF SYMMETRY AOS:          100
 NUMBER OF CONTRACTIONS:           54   (  13Ag  +   6B3u +   6B2u +   2B1g +  13B1u +   6B2g +   6B3g +   2Au  )
 NUMBER OF CORE ORBITALS:          10   (   3Ag  +   1B3u +   1B2u +   0B1g +   3B1u +   1B2g +   1B3g +   0Au  )
 NUMBER OF VALENCE ORBITALS:        8   (   2Ag  +   1B3u +   1B2u +   0B1g +   2B1u +   1B2g +   1B3g +   0Au  )


 NUCLEAR REPULSION ENERGY   51.95558052

 EXTRA SYMMETRY OF AOS IN SYMMETRY 1:   1 1 1 1 1 1 1 1 1 1   2 1 2
 EXTRA SYMMETRY OF AOS IN SYMMETRY 5:   1 1 1 1 1 1 1 1 1 1   2 1 2

 Eigenvalues of metric

         1 0.189E-01 0.984E-01 0.376E+00 0.413E+00 0.461E+00 0.607E+00 0.100E+01 0.100E+01
         2 0.105E+00 0.435E+00 0.732E+00 0.100E+01 0.163E+01 0.256E+01
         3 0.105E+00 0.435E+00 0.732E+00 0.100E+01 0.163E+01 0.256E+01
         4 0.413E+00 0.160E+01
         5 0.138E-01 0.743E-01 0.999E-01 0.353E+00 0.404E+00 0.525E+00 0.999E+00 0.100E+01
         6 0.966E-01 0.347E+00 0.460E+00 0.100E+01 0.154E+01 0.209E+01
         7 0.966E-01 0.347E+00 0.460E+00 0.100E+01 0.154E+01 0.209E+01
         8 0.404E+00 0.159E+01


 Contracted 2-electron integrals neglected if value below      1.0D-11
 AO integral compression algorithm  1   Integral accuracy      1.0D-11

     1.835 MB (compressed) written to integral file ( 53.9%)

     Node minimum: 1.835 MB, node maximum: 1.835 MB


 NUMBER OF SORTED TWO-ELECTRON INTEGRALS:     158516.     BUFFER LENGTH:  32768
 NUMBER OF SEGMENTS:   1  SEGMENT LENGTH:     158516      RECORD LENGTH: 524288

 Memory used in sort:       0.72 MW

 SORT1 READ      384136. AND WROTE      143884. INTEGRALS IN      1 RECORDS. CPU TIME:     0.01 SEC, REAL TIME:     0.02 SEC
 SORT2 READ      143884. AND WROTE      158516. INTEGRALS IN      7 RECORDS. CPU TIME:     0.02 SEC, REAL TIME:     0.04 SEC

 FILE SIZES:   FILE 1:     3.3 MBYTE,  FILE 4:     4.2 MBYTE,   TOTAL:      7.6 MBYTE

 OPERATOR DM      FOR CENTER  0  COORDINATES:    0.000000    0.000000    0.000000


 **********************************************************************************************************************************
 DATASETS  * FILE   NREC   LENGTH (MB)   RECORD NAMES
              1      19        3.34       500      610      700      900      950      970     1000      129      960     1100   
                                          VAR    BASINP    GEOM    SYMINP    ZMAT    AOBASIS   BASIS     P2S    ABASIS      S 
                                         1400     1410     1200     1210     1080     1600     1650     1300     1700   
                                           T        V       H0       H01     AOSYM     SMH    MOLCAS    ERIS     OPER   

 PROGRAMS   *        TOTAL       INT
 CPU TIMES  *         0.16      0.12
 REAL TIME  *         0.33 SEC
 DISK USED  *         9.87 MB      
 GA USED    *         0.00 MB       (max)       0.00 MB       (current)
 **********************************************************************************************************************************

1PROGRAM * RHF-SCF (CLOSED SHELL)       Authors: W. Meyer, H.-J. Werner


 NUMBER OF ELECTRONS:      18+   18-
 CONVERGENCE THRESHOLDS:    1.00E-05 (Density)    1.00E-07 (Energy)
 MAX. NUMBER OF ITERATIONS:       60
 INTERPOLATION TYPE:            DIIS
 INTERPOLATION STEPS:              2 (START)      1 (STEP)
 LEVEL SHIFTS:                  0.00 (CLOSED)  0.00 (OPEN) 



 Orbital guess generated from atomic densities. Full valence occupancy:    5   2   2   0   5   2   2   0


 Molecular orbital dump at record        2100.2

 Initial alpha occupancy:   5   2   2   0   5   2   2   0
 Initial beta  occupancy:   5   2   2   0   5   2   2   0
 Wave function symmetry:    1

 ITERATION    DDIFF          GRAD             ENERGY        2-EL.EN.            DIPOLE MOMENTS         DIIS
    1      0.000D+00      0.000D+00     -1053.59973074    909.614228    0.00000    0.00000    0.00000    0
    2      0.000D+00      0.755D-03     -1053.59982845    909.556772    0.00000    0.00000    0.00000    1
    3      0.172D-02      0.181D-03     -1053.59983438    909.545165    0.00000    0.00000    0.00000    2
    4      0.573D-03      0.174D-04     -1053.59983441    909.543804    0.00000    0.00000    0.00000    3
    5      0.209D-04      0.429D-05     -1053.59983441    909.543769    0.00000    0.00000    0.00000    4
    6      0.926D-05      0.553D-06     -1053.59983441    909.543803    0.00000    0.00000    0.00000    0

 Final occupancy:   5   2   2   0   5   2   2   0

 !RHF STATE 1.1 Energy              -1053.599834412229
 Nuclear energy                        51.95558052
 One-electron energy                -1560.32731664
 Two-electron energy                  454.77190171
 Virial quotient                       -0.99997234
 !RHF STATE 1.1 Dipole moment           0.00000000     0.00000000     0.00000000
 Dipole moment /Debye                   0.00000000     0.00000000     0.00000000

 Orbital energies:

         1.1          2.1          3.1          4.1          5.1          6.1          7.1
   -118.609325   -12.321649    -9.570231    -1.281055    -0.609558     0.148698     0.187710

         1.2          2.2          3.2          4.2
     -9.570230    -0.594606     0.139198     0.499531

         1.3          2.3          3.3          4.3
     -9.570230    -0.594606     0.139198     0.499531

         1.4          2.4
      0.534195     1.601231

         1.5          2.5          3.5          4.5          5.5          6.5          7.5
   -118.609325   -12.321662    -9.570234    -1.276034    -0.574764     0.127959     0.289163

         1.6          2.6          3.6          4.6
     -9.570231    -0.588892     0.176364     0.601446

         1.7          2.7          3.7          4.7
     -9.570231    -0.588892     0.176364     0.601446

         1.8          2.8
      0.548900     1.620542


 **********************************************************************************************************************************
 DATASETS  * FILE   NREC   LENGTH (MB)   RECORD NAMES
              1      19        3.34       500      610      700      900      950      970     1000      129      960     1100   
                                          VAR    BASINP    GEOM    SYMINP    ZMAT    AOBASIS   BASIS     P2S    ABASIS      S 
                                         1400     1410     1200     1210     1080     1600     1650     1300     1700   
                                           T        V       H0       H01     AOSYM     SMH    MOLCAS    ERIS     OPER   

              2       3        0.28       700     1000     2100   
                                         GEOM     BASIS     RHF  

 PROGRAMS   *        TOTAL        HF       INT
 CPU TIMES  *         0.16      0.00      0.12
 REAL TIME  *         0.34 SEC
 DISK USED  *         9.87 MB      
 GA USED    *         0.00 MB       (max)       0.00 MB       (current)
 **********************************************************************************************************************************


1PROGRAM * CCSD (Closed-shell coupled cluster)     Authors: C. Hampel, H.-J. Werner, 1991, M. Deegan, P.J. Knowles, 1992


 Convergence thresholds:  THRVAR = 1.00D-08  THRDEN = 1.00D-06

 CCSD(T)     terms to be evaluated (factor= 1.000)


 Number of core orbitals:          10 (   3   1   1   0   3   1   1   0 )
 Number of closed-shell orbitals:   8 (   2   1   1   0   2   1   1   0 )
 Number of external orbitals:      36 (   8   4   4   2   8   4   4   2 )

 Molecular orbitals read from record     2100.2  Type=RHF/CANONICAL (state 1.1)

 Number of N-1 electron functions:               8
 Number of N-2 electron functions:              36
 Number of singly external CSFs:                48
 Number of doubly external CSFs:              5616
 Total number of CSFs:                        5665

 Length of J-op  integral file:               0.00 MB
 Length of K-op  integral file:               0.07 MB
 Length of 3-ext integral record:             0.00 MB

 Memory could be reduced to 0.38 Mwords without degradation in triples

 Integral transformation finished. Total CPU:   0.01 sec, npass=  1  Memory used:   0.13 MW

 Reference energy:                  -1053.59983441

 MP2 singlet pair energy:              -0.18208548
 MP2 triplet pair energy:              -0.12807304
 MP2 correlation energy:               -0.31015852
 MP2 total energy:                  -1053.90999293

 SCS-MP2 correlation energy:           -0.29819246   (PS=  1.200000  PT=  0.333333)
 SCS-MP2 total energy:              -1053.89802687

 ITER.      SQ.NORM     CORR.ENERGY   TOTAL ENERGY   ENERGY CHANGE        DEN1      VAR(S)    VAR(P)  DIIS     TIME
   1      1.11537401    -0.33291664 -1053.93275105    -0.02275812    -0.01851714  0.21D-03  0.80D-03  1  1     0.02
   2      1.11942587    -0.33353575 -1053.93337016    -0.00061911    -0.00469280  0.57D-05  0.28D-04  2  2     0.02
   3      1.11979359    -0.33357664 -1053.93341106    -0.00004089    -0.00017218  0.15D-05  0.64D-06  3  3     0.03
   4      1.11987678    -0.33357397 -1053.93340838     0.00000267    -0.00002538  0.41D-07  0.42D-07  4  4     0.04
   5      1.11988952    -0.33357227 -1053.93340668     0.00000171    -0.00000548  0.28D-08  0.14D-08  5  5     0.04
   6      1.11989168    -0.33357211 -1053.93340652     0.00000016    -0.00000066  0.20D-09  0.11D-09  6  6     0.05
   7      1.11989204    -0.33357209 -1053.93340650     0.00000001     0.00000007  0.17D-11  0.86D-11  6  1     0.05

 Norm of t1 vector:      0.02198752      S-energy:    -0.00000000      T1 diagnostic:  0.00388688
                                                                       D1 diagnostic:  0.00731265


 Total CPU time for triples:      0.03 sec


 RESULTS
 =======

  Reference energy                  -1053.599834412229
  CCSD singlet pair energy             -0.209894108029
  CCSD triplet pair energy             -0.123677980018
  CCSD correlation energy              -0.333572090788

  Triples (T) contribution             -0.005176104496
  Total correlation energy             -0.338748195284

  CCSD total energy                 -1053.933406503017
  CCSD[T] energy                    -1053.938647916811
  CCSD-T energy                     -1053.938537623382
 !CCSD(T) total energy              -1053.938582607513

 Timing summary (sec):

 STEP                 CPU(USER)    SYS     CPU(TOT)    WALL
 Transformation          0.01      0.00      0.01      0.01
 CCSD iterations         0.04      0.00      0.04      0.04
 Triples                 0.03      0.00      0.03      0.02

 Program statistics:

 Available memory in ccsd:                 7999644
 Min. memory needed in ccsd:                 26349
 Max. memory used in ccsd:                   30285
 Max. memory used in cckext:                 70363 ( 7 integral passes)



 **********************************************************************************************************************************
 DATASETS  * FILE   NREC   LENGTH (MB)   RECORD NAMES
              1      20        3.80       500      610      700      900      950      970     1000      129      960     1100   
                                          VAR    BASINP    GEOM    SYMINP    ZMAT    AOBASIS   BASIS     P2S    ABASIS      S 
                                         1400     1410     1200     1210     1080     1600     1650     1300     1700     1380   
                                           T        V       H0       H01     AOSYM     SMH    MOLCAS    ERIS     OPER     JKOP   

              2       3        0.28       700     1000     2100   
                                         GEOM     BASIS     RHF  

 PROGRAMS   *        TOTAL   CCSD(T)        HF       INT
 CPU TIMES  *         0.24      0.08      0.00      0.12
 REAL TIME  *         0.43 SEC
 DISK USED  *         9.87 MB      
 GA USED    *         0.00 MB       (max)       0.00 MB       (current)
 **********************************************************************************************************************************
 SETTING E_COMPLEX      =     -1053.93858261  AU                              

 *** energy of Ar1

 Dummy atoms: AR1
 Symmetry equivalent atom AR2 not found in list of dummies
 ? Error
 ? Symmetry inconsistent with dummy atoms
 ? The problem occurs in readum

 GLOBAL ERROR fehler on processor   0                                         
