<?xml version="1.0"?>
<molpro xmlns="http://www.molpro.net/schema/molpro-output"
  xmlns:xsd="http://www.w3.org/1999/XMLSchema"
  xmlns:cml="http://www.xml-cml.org/schema"
  xmlns:stm="http://www.xml-cml.org/schema"
  xmlns:xhtml="http://www.w3.org/1999/xhtml">
 <!--

 Primary working directories    : /mnt/SSD/student17
 Secondary working directories  : /mnt/SSD/student17
 Wavefunction directory         : /home/student17/wfu/
 Main file repository           : /mnt/SSD/student17/

 ARCHNAME  : Linux/x86_64
 FC        : /usr/bin/gfortran
 FCVERSION : 4.7.2
 BLASLIB   : -L/opt/intel/mkl/lib/intel64 -lmkl_intel_ilp64 -lmkl_sequential -lmkl_core
 id        : plat

 Nodes     nprocs
 debserv      1
 ga_uses_ma=false, calling ma_init with nominal heap.
 GA-space will be limited to   8.0 MW (determined by -G option)

 Using customized tuning parameters: mindgm=12; mindgv=24; mindgc=8; mindgr=1; noblas=0; mincuda=1000; minvec=7
 default implementation of scratch files=df  

 --><job>
  <!--
 ***,Ar-Ar
 
                                                                                 ! basis = aug-cc-pvqz ! basis set
 basis = aug-cc-pvqz
 
 geometry = {
 ar;
 ar, ar, r}
 
 r_min = 3.30, angstrem
 r_max = 12.50, angstrem
 n = 93
 
 do i=1, n
 r = r_min + (r_max - r_min)/(n-1) * (i-1)
 dist(i) = r
 
                                                                                 ! hartree fock
 hf
 ccsd(t)
 e_complex = energy
 
 e(i) = e_complex
 
 enddo
 
 table dist, e
 save ar2.tab, new

 Variables initialized (661), CPU time= 0.00 sec
 Commands  initialized (460), CPU time= 0.00 sec, 486 directives.
 Default parameters read. Elapsed time= 0.03 sec

 Checking input...
 Passed
1


                                         ***  PROGRAM SYSTEM MOLPRO  ***
                         Copyright, University College Cardiff Consultants Limited, 2008

                                    Version 2010.1 linked 30 Ноя 2013 12:52


 **********************************************************************************************************************************
 LABEL *   Ar-Ar                                                                         
 Linux-3.2.0-4-amd64/debserv(x86_64) 64 bit mpp version                                  DATE: 04-Jun-17          TIME: 16:34:18  
 **********************************************************************************************************************************

 SHA1:             fd122acbd35ef3619fab5330ac0556b6c1fa4be2
 **********************************************************************************************************************************
  -->
  <!--

 Variable memory set to    8000000 words,  buffer space   230000 words

 SETTING BASIS          =    AUG-CC-PVQZ
 SETTING R_MIN          =         3.30000000  ANGSTREM                        
 SETTING R_MAX          =        12.50000000  ANGSTREM                        
 SETTING N              =        93.00000000                                  

 DO I                   =         1.00000000   
 SETTING R              =         3.30000000  ANGSTREM                        
 SETTING DIST(1)        =         3.30000000  ANGSTREM                        
  --><jobstep command="HF-SCF" commandset="SCFPRO">
   <!--


 Recomputing integrals since basis changed


 Using spherical harmonics

 Library entry AR     S aug-cc-pVQZ          selected for orbital group  1
 Library entry AR     P aug-cc-pVQZ          selected for orbital group  1
 Library entry AR     D aug-cc-pVQZ          selected for orbital group  1
 Library entry AR     F aug-cc-pVQZ          selected for orbital group  1
 Library entry AR     G aug-cc-pVQZ          selected for orbital group  1

1PROGRAM * SEWARD (Integral evaluation for generally contracted gaussian basis sets)     Author: Roland Lindh, 1990

 Geometry written to block  1 of record 700

 Orientation using atomic masses  
 Molecule type: Linear
 Symmetry elements: X,Y,Z
 Rotational constants:       2.3234015      2.3234015      0.0000000 GHz  (calculated with average atomic masses)

 Point group  D2h 


   --><cml:symmetry pointGroup="D2h"/><!--
   --><cml:atomArray>
    <cml:atom id="a1" elementType="Ar" x3="0.0" y3="0.0" z3="-1.65"/>
    <cml:atom id="a2" elementType="Ar" x3="0.0" y3="0.0" z3="1.65"/>
   </cml:atomArray><!--
   --><cml:bondArray>
   </cml:bondArray><!--

 ATOMIC COORDINATES

 NR  ATOM    CHARGE       X              Y              Z

   1  AR     18.00    0.000000000    0.000000000   -3.118048117
   2  AR     18.00    0.000000000    0.000000000    3.118048117

 NUCLEAR CHARGE:                   36
 NUMBER OF PRIMITIVE AOS:         274
 NUMBER OF SYMMETRY AOS:          224
 NUMBER OF CONTRACTIONS:          168   (  33Ag  +  20B3u +  20B2u +  11B1g +  33B1u +  20B2g +  20B3g +  11Au  )
 NUMBER OF CORE ORBITALS:          10   (   3Ag  +   1B3u +   1B2u +   0B1g +   3B1u +   1B2g +   1B3g +   0Au  )
 NUMBER OF VALENCE ORBITALS:        8   (   2Ag  +   1B3u +   1B2u +   0B1g +   2B1u +   1B2g +   1B3g +   0Au  )


 NUCLEAR REPULSION ENERGY   51.95558052

 EXTRA SYMMETRY OF AOS IN SYMMETRY 1:   1 1 1 1 1 1 1 1 1 1   1 1 1 1 2 1 2 1 2 1   2 1 2 1 2 1 2 1 3 2   1 3 2
 EXTRA SYMMETRY OF AOS IN SYMMETRY 2:   1 1 1 1 1 1 1 1 1 1   1 2 1 2 1 2 1 2 1 2
 EXTRA SYMMETRY OF AOS IN SYMMETRY 3:   1 1 1 1 1 1 1 1 1 1   1 2 1 2 1 2 1 2 1 2
 EXTRA SYMMETRY OF AOS IN SYMMETRY 4:   1 1 1 1 1 1 1 1 2 1   2
 EXTRA SYMMETRY OF AOS IN SYMMETRY 5:   1 1 1 1 1 1 1 1 1 1   1 1 1 1 2 1 2 1 2 1   2 1 2 1 2 1 2 1 3 2   1 3 2
 EXTRA SYMMETRY OF AOS IN SYMMETRY 6:   1 1 1 1 1 1 1 1 1 1   1 2 1 2 1 2 1 2 1 2
 EXTRA SYMMETRY OF AOS IN SYMMETRY 7:   1 1 1 1 1 1 1 1 1 1   1 2 1 2 1 2 1 2 1 2
 EXTRA SYMMETRY OF AOS IN SYMMETRY 8:   1 1 1 1 1 1 1 1 2 1   2

 Eigenvalues of metric

         1 0.201E-03 0.666E-03 0.107E-01 0.483E-01 0.566E-01 0.842E-01 0.944E-01 0.103E+00
         2 0.684E-03 0.548E-01 0.816E-01 0.987E-01 0.107E+00 0.289E+00 0.340E+00 0.355E+00
         3 0.684E-03 0.548E-01 0.816E-01 0.987E-01 0.107E+00 0.289E+00 0.340E+00 0.355E+00
         4 0.842E-01 0.103E+00 0.339E+00 0.344E+00 0.400E+00 0.711E+00 0.119E+01 0.166E+01
         5 0.194E-03 0.636E-03 0.430E-02 0.952E-02 0.366E-01 0.725E-01 0.787E-01 0.840E-01
         6 0.678E-03 0.455E-01 0.566E-01 0.825E-01 0.975E-01 0.193E+00 0.273E+00 0.327E+00
         7 0.678E-03 0.455E-01 0.566E-01 0.825E-01 0.975E-01 0.193E+00 0.273E+00 0.327E+00
         8 0.787E-01 0.926E-01 0.330E+00 0.339E+00 0.360E+00 0.686E+00 0.108E+01 0.165E+01


 Contracted 2-electron integrals neglected if value below      1.0D-11
 AO integral compression algorithm  1   Integral accuracy      1.0D-11

     79.954 MB (compressed) written to integral file ( 41.8%)

     Node minimum: 79.954 MB, node maximum: 79.954 MB


 NUMBER OF SORTED TWO-ELECTRON INTEGRALS:   13027854.     BUFFER LENGTH:  32768
 NUMBER OF SEGMENTS:   2  SEGMENT LENGTH:    6670587      RECORD LENGTH: 524288

 Memory used in sort:       7.23 MW

 SORT1 READ    23909504. AND WROTE     9953512. INTEGRALS IN     29 RECORDS. CPU TIME:     0.47 SEC, REAL TIME:     0.54 SEC
 SORT2 READ     9953512. AND WROTE    13027854. INTEGRALS IN    305 RECORDS. CPU TIME:     0.32 SEC, REAL TIME:     0.54 SEC

 FILE SIZES:   FILE 1:    47.9 MBYTE,  FILE 4:   121.7 MBYTE,   TOTAL:    169.5 MBYTE

 OPERATOR DM      FOR CENTER  0  COORDINATES:    0.000000    0.000000    0.000000


 **********************************************************************************************************************************
 DATASETS  * FILE   NREC   LENGTH (MB)   RECORD NAMES
              1      19       47.92       500      610      700      900      950      970     1000      129      960     1100   
                                          VAR    BASINP    GEOM    SYMINP    ZMAT    AOBASIS   BASIS     P2S    ABASIS      S 
                                         1400     1410     1200     1210     1080     1600     1650     1300     1700   
                                           T        V       H0       H01     AOSYM     SMH    MOLCAS    ERIS     OPER   

 PROGRAMS   *        TOTAL       INT
 CPU TIMES  *         3.86      3.82
 REAL TIME  *         4.95 SEC
 DISK USED  *       250.02 MB      
 GA USED    *         0.00 MB       (max)       0.00 MB       (current)
 **********************************************************************************************************************************

1PROGRAM * RHF-SCF (CLOSED SHELL)       Authors: W. Meyer, H.-J. Werner


 NUMBER OF ELECTRONS:      18+   18-
 CONVERGENCE THRESHOLDS:    1.00E-05 (Density)    1.00E-07 (Energy)
 MAX. NUMBER OF ITERATIONS:       60
 INTERPOLATION TYPE:            DIIS
 INTERPOLATION STEPS:              2 (START)      1 (STEP)
 LEVEL SHIFTS:                  0.00 (CLOSED)  0.00 (OPEN) 



 Orbital guess generated from atomic densities. Full valence occupancy:    5   2   2   0   5   2   2   0


 Molecular orbital dump at record        2100.2

 Initial alpha occupancy:   5   2   2   0   5   2   2   0
 Initial beta  occupancy:   5   2   2   0   5   2   2   0
 Wave function symmetry:    1

 ITERATION    DDIFF          GRAD             ENERGY        2-EL.EN.            DIPOLE MOMENTS         DIIS
    1      0.000D+00      0.000D+00     -1053.63136635    909.674048    0.00000    0.00000    0.00000    0
    2      0.000D+00      0.117D-03     -1053.63137941    909.642309    0.00000    0.00000    0.00000    1
    3      0.206D-03      0.302D-04     -1053.63138030    909.649392    0.00000    0.00000    0.00000    2
    4      0.664D-04      0.845D-05     -1053.63138036    909.646427    0.00000    0.00000    0.00000    3
    5      0.165D-04      0.184D-05     -1053.63138036    909.646290    0.00000    0.00000    0.00000    4
    6      0.480D-05      0.322D-06     -1053.63138036    909.646401    0.00000    0.00000    0.00000    0

 Final occupancy:   5   2   2   0   5   2   2   0

 !RHF STATE 1.1 Energy              -1053.631380363137
   --><property name="Energy" method="RHF" principal="true" stateSymmetry="1" stateNumber="1"
     value="-1053.63138036314"/><!--
 Nuclear energy                        51.95558052
 One-electron energy                -1560.41016160
 Two-electron energy                  454.82320071
 Virial quotient                       -0.99998151
 !RHF STATE 1.1 Dipole moment           0.00000000     0.00000000     0.00000000
 Dipole moment /Debye                   0.00000000     0.00000000     0.00000000
   --><property name="Dipole moment" method="RHF" principal="true" stateSymmetry="1"
     stateNumber="1" value="0.0 0.0 0.0"/><!--

 Orbital energies:

         1.1          2.1          3.1          4.1          5.1          6.1          7.1
   -118.609145   -12.321129    -9.570410    -1.279649    -0.608343     0.108644     0.138983

         1.2          2.2          3.2          4.2
     -9.570407    -0.593501     0.102130     0.290443

         1.3          2.3          3.3          4.3
     -9.570407    -0.593501     0.102130     0.290443

         1.4          2.4
      0.293450     0.769626

         1.5          2.5          3.5          4.5          5.5          6.5          7.5
   -118.609145   -12.321131    -9.570410    -1.274642    -0.573666     0.087021     0.232260

         1.6          2.6          3.6          4.6
     -9.570408    -0.587788     0.132609     0.417593

         1.7          2.7          3.7          4.7
     -9.570408    -0.587788     0.132609     0.417593

         1.8          2.8
      0.339226     0.790781


 **********************************************************************************************************************************
 DATASETS  * FILE   NREC   LENGTH (MB)   RECORD NAMES
              1      19       47.92       500      610      700      900      950      970     1000      129      960     1100   
                                          VAR    BASINP    GEOM    SYMINP    ZMAT    AOBASIS   BASIS     P2S    ABASIS      S 
                                         1400     1410     1200     1210     1080     1600     1650     1300     1700   
                                           T        V       H0       H01     AOSYM     SMH    MOLCAS    ERIS     OPER   

              2       3        0.38       700     1000     2100   
                                         GEOM     BASIS     RHF  

 PROGRAMS   *        TOTAL        HF       INT
 CPU TIMES  *         3.98      0.12      3.82
 REAL TIME  *         5.10 SEC
 DISK USED  *       250.02 MB      
 GA USED    *         0.00 MB       (max)       0.00 MB       (current)
 **********************************************************************************************************************************
   -->
   <time start="16:34:18" end="16:34:23" cpu="3.98" system="0.2" real="5.1"/>
   <storage units="megabyte" memory="65.84" sf="0.0" df="170.07" eaf="79.95" ga="0.0"/>
  </jobstep><!--
  --><jobstep command="CCSD(T)" commandset="CCSD">
   <!--


1PROGRAM * CCSD (Closed-shell coupled cluster)     Authors: C. Hampel, H.-J. Werner, 1991, M. Deegan, P.J. Knowles, 1992


 Convergence thresholds:  THRVAR = 1.00D-08  THRDEN = 1.00D-06

 CCSD(T)     terms to be evaluated (factor= 1.000)


 Number of core orbitals:          10 (   3   1   1   0   3   1   1   0 )
 Number of closed-shell orbitals:   8 (   2   1   1   0   2   1   1   0 )
 Number of external orbitals:     150 (  28  18  18  11  28  18  18  11 )

 Molecular orbitals read from record     2100.2  Type=RHF/CANONICAL (state 1.1)

 Number of N-1 electron functions:               8
 Number of N-2 electron functions:              36
 Number of singly external CSFs:               184
 Number of doubly external CSFs:             92912
 Total number of CSFs:                       93097

 Length of J-op  integral file:               0.00 MB
 Length of K-op  integral file:               0.31 MB
 Length of 3-ext integral record:             0.00 MB

 Memory could be reduced to 5.15 Mwords without degradation in triples

 Integral transformation finished. Total CPU:   0.13 sec, npass=  1  Memory used:   1.71 MW

 Reference energy:                  -1053.63138036

 MP2 singlet pair energy:              -0.30059408
 MP2 triplet pair energy:              -0.16579433
 MP2 correlation energy:               -0.46638841
 MP2 total energy:                  -1054.09776877

 SCS-MP2 correlation energy:           -0.46387381   (PS=  1.200000  PT=  0.333333)
 SCS-MP2 total energy:              -1054.09525418

 ITER.      SQ.NORM     CORR.ENERGY   TOTAL ENERGY   ENERGY CHANGE        DEN1      VAR(S)    VAR(P)  DIIS     TIME
   1      1.14653738    -0.49946003 -1054.13084040    -0.03307162    -0.02503717  0.11D-03  0.14D-02  1  1     0.29
   2      1.15267247    -0.50065263 -1054.13203300    -0.00119260    -0.00850794  0.31D-05  0.46D-04  2  2     0.47
   3      1.15335513    -0.50059733 -1054.13197769     0.00005531    -0.00062066  0.20D-06  0.24D-05  3  3     0.65
   4      1.15348292    -0.50060981 -1054.13199017    -0.00001248    -0.00004641  0.22D-07  0.76D-07  4  4     0.81
   5      1.15349969    -0.50060995 -1054.13199032    -0.00000014    -0.00000791  0.15D-08  0.33D-08  5  5     0.98
   6      1.15350145    -0.50060936 -1054.13198972     0.00000060    -0.00000100  0.21D-09  0.20D-09  6  6     1.16

 Norm of t1 vector:      0.01262977      S-energy:    -0.00000002      T1 diagnostic:  0.00223265
                                                                       D1 diagnostic:  0.00370201


 Total CPU time for triples:      1.78 sec


 RESULTS
 =======

  Reference energy                  -1053.631380363138
  CCSD singlet pair energy             -0.339886694798
  CCSD triplet pair energy             -0.160722645068
  CCSD correlation energy              -0.500609355258

  Triples (T) contribution             -0.017806216875
  Total correlation energy             -0.518415572132

  CCSD total energy                 -1054.131989718395
  CCSD[T] energy                    -1054.149827806765
  CCSD-T energy                     -1054.149805836011
 !CCSD(T) total energy              -1054.149795935270

 Timing summary (sec):

 STEP                 CPU(USER)    SYS     CPU(TOT)    WALL
 Transformation          0.13      0.02      0.15      0.15
 CCSD iterations         1.03      0.05      1.08      1.08
 Triples                 1.78      0.02      1.80      1.83

 Program statistics:

 Available memory in ccsd:                 7999644
 Min. memory needed in ccsd:                301383
 Max. memory used in ccsd:                  379719
 Max. memory used in cckext:                367247 ( 6 integral passes)

   --><property name="energy" method="Reference" stateSymmetry="1" stateNumber="1"
     value="-1053.63138036314"/>
      <property name="singlet pair energy" method="CCSD" stateSymmetry="1" stateNumber="1"
     value="-0.339886694797717"/>
      <property name="triplet pair energy" method="CCSD" stateSymmetry="1" stateNumber="1"
     value="-0.160722645068322"/>
      <property name="correlation energy" method="CCSD" stateSymmetry="1" stateNumber="1"
     value="-0.500609355257531"/>
      <property name="contribution" method="Triples (T)" stateSymmetry="1" stateNumber="1"
     value="-0.178062168747276E-01"/>
      <property name="correlation energy" method="Total" stateSymmetry="1" stateNumber="1"
     value="-0.518415572132259"/>
      <property name="total energy" method="CCSD" stateSymmetry="1" stateNumber="1"
     value="-1054.1319897184"/>
      <property name="energy" method="CCSD[T]" stateSymmetry="1" stateNumber="1"
     value="-1054.14982780676"/>
      <property name="energy" method="CCSD-T" stateSymmetry="1" stateNumber="1"
     value="-1054.14980583601"/>
      <property name="total energy" method="CCSD(T)" principal="true" stateSymmetry="1"
     stateNumber="1" value="-1054.14979593527"/><!--


 **********************************************************************************************************************************
 DATASETS  * FILE   NREC   LENGTH (MB)   RECORD NAMES
              1      20       63.86       500      610      700      900      950      970     1000      129      960     1100   
                                          VAR    BASINP    GEOM    SYMINP    ZMAT    AOBASIS   BASIS     P2S    ABASIS      S 
                                         1400     1410     1200     1210     1080     1600     1650     1300     1700     1380   
                                           T        V       H0       H01     AOSYM     SMH    MOLCAS    ERIS     OPER     JKOP   

              2       3        0.38       700     1000     2100   
                                         GEOM     BASIS     RHF  

 PROGRAMS   *        TOTAL   CCSD(T)        HF       INT
 CPU TIMES  *         6.94      2.96      0.12      3.82
 REAL TIME  *         8.18 SEC
 DISK USED  *       250.02 MB      
 GA USED    *         0.00 MB       (max)       0.00 MB       (current)
 **********************************************************************************************************************************
   -->
   <time start="16:34:23" end="16:34:26" cpu="2.96" system="0.1" real="3.08"/>
   <storage units="megabyte" memory="65.84" sf="0.0" df="170.07" eaf="79.95" ga="0.0"/>
  </jobstep><!--
 SETTING E_COMPLEX      =     -1054.14979594  AU                              
 SETTING E(1)           =     -1054.14979594  AU                              

 DO I                   =         2.00000000   
 SETTING R              =         3.40000000  ANGSTREM                        
 SETTING DIST(2)        =         3.40000000  ANGSTREM                        
  --><jobstep command="HF-SCF" commandset="SCFPRO">
   <!--


 Recomputing integrals since geometry changed

1PROGRAM * SEWARD (Integral evaluation for generally contracted gaussian basis sets)     Author: Roland Lindh, 1990

 Geometry written to block  1 of record 700

 Orientation using atomic masses  
 Molecule type: Linear
 Symmetry elements: X,Y,Z
 Rotational constants:       2.1887407      2.1887407      0.0000000 GHz  (calculated with average atomic masses)

 Point group  D2h 


   --><cml:symmetry pointGroup="D2h"/><!--
   --><cml:atomArray>
    <cml:atom id="a1" elementType="Ar" x3="0.0" y3="0.0" z3="-1.7"/>
    <cml:atom id="a2" elementType="Ar" x3="0.0" y3="0.0" z3="1.7"/>
   </cml:atomArray><!--
   --><cml:bondArray>
   </cml:bondArray><!--

 ATOMIC COORDINATES

 NR  ATOM    CHARGE       X              Y              Z

   1  AR     18.00    0.000000000    0.000000000   -3.212534423
   2  AR     18.00    0.000000000    0.000000000    3.212534423

 NUCLEAR CHARGE:                   36
 NUMBER OF PRIMITIVE AOS:         274
 NUMBER OF SYMMETRY AOS:          224
 NUMBER OF CONTRACTIONS:          168   (  33Ag  +  20B3u +  20B2u +  11B1g +  33B1u +  20B2g +  20B3g +  11Au  )
 NUMBER OF CORE ORBITALS:          10   (   3Ag  +   1B3u +   1B2u +   0B1g +   3B1u +   1B2g +   1B3g +   0Au  )
 NUMBER OF VALENCE ORBITALS:        8   (   2Ag  +   1B3u +   1B2u +   0B1g +   2B1u +   1B2g +   1B3g +   0Au  )


 NUCLEAR REPULSION ENERGY   50.42747521

 EXTRA SYMMETRY OF AOS IN SYMMETRY 1:   1 1 1 1 1 1 1 1 1 1   1 1 1 1 2 1 2 1 2 1   2 1 2 1 2 1 2 1 3 2   1 3 2
 EXTRA SYMMETRY OF AOS IN SYMMETRY 2:   1 1 1 1 1 1 1 1 1 1   1 2 1 2 1 2 1 2 1 2
 EXTRA SYMMETRY OF AOS IN SYMMETRY 3:   1 1 1 1 1 1 1 1 1 1   1 2 1 2 1 2 1 2 1 2
 EXTRA SYMMETRY OF AOS IN SYMMETRY 4:   1 1 1 1 1 1 1 1 2 1   2
 EXTRA SYMMETRY OF AOS IN SYMMETRY 5:   1 1 1 1 1 1 1 1 1 1   1 1 1 1 2 1 2 1 2 1   2 1 2 1 2 1 2 1 3 2   1 3 2
 EXTRA SYMMETRY OF AOS IN SYMMETRY 6:   1 1 1 1 1 1 1 1 1 1   1 2 1 2 1 2 1 2 1 2
 EXTRA SYMMETRY OF AOS IN SYMMETRY 7:   1 1 1 1 1 1 1 1 1 1   1 2 1 2 1 2 1 2 1 2
 EXTRA SYMMETRY OF AOS IN SYMMETRY 8:   1 1 1 1 1 1 1 1 2 1   2

 Eigenvalues of metric

         1 0.201E-03 0.670E-03 0.108E-01 0.482E-01 0.609E-01 0.841E-01 0.942E-01 0.102E+00
         2 0.685E-03 0.547E-01 0.821E-01 0.986E-01 0.107E+00 0.288E+00 0.340E+00 0.351E+00
         3 0.685E-03 0.547E-01 0.821E-01 0.986E-01 0.107E+00 0.288E+00 0.340E+00 0.351E+00
         4 0.841E-01 0.102E+00 0.339E+00 0.343E+00 0.399E+00 0.708E+00 0.118E+01 0.166E+01
         5 0.195E-03 0.637E-03 0.485E-02 0.112E-01 0.372E-01 0.761E-01 0.791E-01 0.846E-01
         6 0.679E-03 0.467E-01 0.586E-01 0.851E-01 0.976E-01 0.198E+00 0.282E+00 0.332E+00
         7 0.679E-03 0.467E-01 0.586E-01 0.851E-01 0.976E-01 0.198E+00 0.282E+00 0.332E+00
         8 0.791E-01 0.938E-01 0.333E+00 0.339E+00 0.362E+00 0.689E+00 0.109E+01 0.166E+01


 Contracted 2-electron integrals neglected if value below      1.0D-11
 AO integral compression algorithm  1   Integral accuracy      1.0D-11

     79.692 MB (compressed) written to integral file ( 41.7%)

     Node minimum: 79.692 MB, node maximum: 79.692 MB


 NUMBER OF SORTED TWO-ELECTRON INTEGRALS:   13027854.     BUFFER LENGTH:  32768
 NUMBER OF SEGMENTS:   2  SEGMENT LENGTH:    6670587      RECORD LENGTH: 524288

 Memory used in sort:       7.23 MW

 SORT1 READ    23909504. AND WROTE     9953130. INTEGRALS IN     29 RECORDS. CPU TIME:     0.44 SEC, REAL TIME:     0.54 SEC
 SORT2 READ     9953130. AND WROTE    13027854. INTEGRALS IN    304 RECORDS. CPU TIME:     0.35 SEC, REAL TIME:     0.38 SEC

 FILE SIZES:   FILE 1:    47.8 MBYTE,  FILE 4:   121.7 MBYTE,   TOTAL:    169.5 MBYTE

 OPERATOR DM      FOR CENTER  0  COORDINATES:    0.000000    0.000000    0.000000


 **********************************************************************************************************************************
 DATASETS  * FILE   NREC   LENGTH (MB)   RECORD NAMES
              1      19       47.83       500      610      700      900      950      970     1000      129      960     1100   
                                          VAR    BASINP    GEOM    SYMINP    ZMAT    AOBASIS   BASIS     P2S    ABASIS      S 
                                         1400     1410     1200     1210     1080     1600     1650     1300     1700   
                                           T        V       H0       H01     AOSYM     SMH    MOLCAS    ERIS     OPER   

              2       3        0.38       700     1000     2100   
                                         GEOM     BASIS     RHF  

 PROGRAMS   *        TOTAL       INT   CCSD(T)        HF       INT
 CPU TIMES  *        10.72      3.78      2.96      0.12      3.82
 REAL TIME  *        12.23 SEC
 DISK USED  *       250.05 MB      
 GA USED    *         0.00 MB       (max)       0.00 MB       (current)
 **********************************************************************************************************************************

1PROGRAM * RHF-SCF (CLOSED SHELL)       Authors: W. Meyer, H.-J. Werner


 NUMBER OF ELECTRONS:      18+   18-
 CONVERGENCE THRESHOLDS:    1.00E-05 (Density)    1.00E-07 (Energy)
 MAX. NUMBER OF ITERATIONS:       60
 INTERPOLATION TYPE:            DIIS
 INTERPOLATION STEPS:              2 (START)      1 (STEP)
 LEVEL SHIFTS:                  0.00 (CLOSED)  0.00 (OPEN) 



 Molecular orbitals read from record     2100.2  Type=RHF/CANONICAL (state 1.1)

 Molecular orbital dump at record        2100.2

 ITERATION    DDIFF          GRAD             ENERGY        2-EL.EN.            DIPOLE MOMENTS         DIIS
    1      0.000D+00      0.000D+00     -1053.63204582    906.562729    0.00000    0.00000    0.00000    0
    2      0.000D+00      0.109D-03     -1053.63205459    906.582555    0.00000    0.00000    0.00000    1
    3      0.204D-03      0.163D-04     -1053.63205482    906.576099    0.00000    0.00000    0.00000    2
    4      0.377D-04      0.372D-05     -1053.63205483    906.578014    0.00000    0.00000    0.00000    3
    5      0.787D-05      0.707D-06     -1053.63205483    906.577905    0.00000    0.00000    0.00000    0

 Final occupancy:   5   2   2   0   5   2   2   0

 !RHF STATE 1.1 Energy              -1053.632054830815
   --><property name="Energy" method="RHF" principal="true" stateSymmetry="1" stateNumber="1"
     value="-1053.63205483081"/><!--
 Nuclear energy                        50.42747521
 One-electron energy                -1557.34848231
 Two-electron energy                  453.28895226
 Virial quotient                       -0.99998863
 !RHF STATE 1.1 Dipole moment           0.00000000     0.00000000     0.00000000
 Dipole moment /Debye                   0.00000000     0.00000000     0.00000000
   --><property name="Dipole moment" method="RHF" principal="true" stateSymmetry="1"
     stateNumber="1" value="0.0 0.0 0.0"/><!--

 Orbital energies:

         1.1          2.1          3.1          4.1          5.1          6.1          7.1
   -118.609477   -12.321408    -9.570691    -1.279122    -0.605528     0.108697     0.137735

         1.2          2.2          3.2          4.2
     -9.570691    -0.593039     0.101756     0.288914

         1.3          2.3          3.3          4.3
     -9.570691    -0.593039     0.101756     0.288914

         1.4          2.4
      0.294839     0.769205

         1.5          2.5          3.5          4.5          5.5          6.5          7.5
   -118.609477   -12.321410    -9.570692    -1.275258    -0.576532     0.087882     0.229509

         1.6          2.6          3.6          4.6
     -9.570691    -0.588426     0.132233     0.412639

         1.7          2.7          3.7          4.7
     -9.570691    -0.588426     0.132233     0.412639

         1.8          2.8
      0.337022     0.790323


 **********************************************************************************************************************************
 DATASETS  * FILE   NREC   LENGTH (MB)   RECORD NAMES
              1      19       47.83       500      610      700      900      950      970     1000      129      960     1100   
                                          VAR    BASINP    GEOM    SYMINP    ZMAT    AOBASIS   BASIS     P2S    ABASIS      S 
                                         1400     1410     1200     1210     1080     1600     1650     1300     1700   
                                           T        V       H0       H01     AOSYM     SMH    MOLCAS    ERIS     OPER   

              2       3        0.38       700     1000     2100   
                                         GEOM     BASIS     RHF  

 PROGRAMS   *        TOTAL        HF       INT   CCSD(T)        HF       INT
 CPU TIMES  *        10.82      0.09      3.78      2.96      0.12      3.82
 REAL TIME  *        12.33 SEC
 DISK USED  *       250.05 MB      
 GA USED    *         0.00 MB       (max)       0.00 MB       (current)
 **********************************************************************************************************************************
   -->
   <time start="16:34:26" end="16:34:30" cpu="3.88" system="0.2" real="4.15"/>
   <storage units="megabyte" memory="65.84" sf="0.0" df="170.1" eaf="79.95" ga="0.0"/>
  </jobstep><!--
  --><jobstep command="CCSD(T)" commandset="CCSD">
   <!--


1PROGRAM * CCSD (Closed-shell coupled cluster)     Authors: C. Hampel, H.-J. Werner, 1991, M. Deegan, P.J. Knowles, 1992


 Convergence thresholds:  THRVAR = 1.00D-08  THRDEN = 1.00D-06

 CCSD(T)     terms to be evaluated (factor= 1.000)


 Number of core orbitals:          10 (   3   1   1   0   3   1   1   0 )
 Number of closed-shell orbitals:   8 (   2   1   1   0   2   1   1   0 )
 Number of external orbitals:     150 (  28  18  18  11  28  18  18  11 )

 Molecular orbitals read from record     2100.2  Type=RHF/CANONICAL (state 1.1)

 Number of N-1 electron functions:               8
 Number of N-2 electron functions:              36
 Number of singly external CSFs:               184
 Number of doubly external CSFs:             92912
 Total number of CSFs:                       93097

 Length of J-op  integral file:               0.00 MB
 Length of K-op  integral file:               0.31 MB
 Length of 3-ext integral record:             0.00 MB

 Memory could be reduced to 5.15 Mwords without degradation in triples

 Integral transformation finished. Total CPU:   0.12 sec, npass=  1  Memory used:   1.71 MW

 Reference energy:                  -1053.63205483

 MP2 singlet pair energy:              -0.30048972
 MP2 triplet pair energy:              -0.16554959
 MP2 correlation energy:               -0.46603931
 MP2 total energy:                  -1054.09809414

 SCS-MP2 correlation energy:           -0.46359630   (PS=  1.200000  PT=  0.333333)
 SCS-MP2 total energy:              -1054.09565113

 ITER.      SQ.NORM     CORR.ENERGY   TOTAL ENERGY   ENERGY CHANGE        DEN1      VAR(S)    VAR(P)  DIIS     TIME
   1      1.14648858    -0.49918102 -1054.13123585    -0.03314171    -0.02510406  0.11D-03  0.14D-02  1  1     0.28
   2      1.15262604    -0.50037358 -1054.13242841    -0.00119256    -0.00851371  0.30D-05  0.46D-04  2  2     0.45
   3      1.15330701    -0.50031883 -1054.13237366     0.00005475    -0.00061910  0.19D-06  0.24D-05  3  3     0.63
   4      1.15343404    -0.50033145 -1054.13238629    -0.00001263    -0.00004599  0.22D-07  0.75D-07  4  4     0.80
   5      1.15345075    -0.50033155 -1054.13238638    -0.00000009    -0.00000799  0.15D-08  0.32D-08  5  5     0.97
   6      1.15345243    -0.50033096 -1054.13238579     0.00000059    -0.00000095  0.21D-09  0.19D-09  6  6     1.14

 Norm of t1 vector:      0.01257385      S-energy:    -0.00000005      T1 diagnostic:  0.00222276
                                                                       D1 diagnostic:  0.00364530

 Total CPU time for triples:      1.74 sec


 RESULTS
 =======

  Reference energy                  -1053.632054830814
  CCSD singlet pair energy             -0.339816960932
  CCSD triplet pair energy             -0.160513953256
  CCSD correlation energy              -0.500330960677

  Triples (T) contribution             -0.017766887236
  Total correlation energy             -0.518097847913

  CCSD total energy                 -1054.132385791491
  CCSD[T] energy                    -1054.150184699758
  CCSD-T energy                     -1054.150162696918
 !CCSD(T) total energy              -1054.150152678727

 Timing summary (sec):

 STEP                 CPU(USER)    SYS     CPU(TOT)    WALL
 Transformation          0.12      0.03      0.15      0.14
 CCSD iterations         1.02      0.05      1.07      1.08
 Triples                 1.74      0.08      1.82      1.86

 Program statistics:

 Available memory in ccsd:                 7999644
 Min. memory needed in ccsd:                301383
 Max. memory used in ccsd:                  379719
 Max. memory used in cckext:                367247 ( 6 integral passes)

   --><property name="energy" method="Reference" stateSymmetry="1" stateNumber="1"
     value="-1053.63205483081"/>
      <property name="singlet pair energy" method="CCSD" stateSymmetry="1" stateNumber="1"
     value="-0.339816960932392"/>
      <property name="triplet pair energy" method="CCSD" stateSymmetry="1" stateNumber="1"
     value="-0.160513953255957"/>
      <property name="correlation energy" method="CCSD" stateSymmetry="1" stateNumber="1"
     value="-0.50033096067714"/>
      <property name="contribution" method="Triples (T)" stateSymmetry="1" stateNumber="1"
     value="-0.177668872358934E-01"/>
      <property name="correlation energy" method="Total" stateSymmetry="1" stateNumber="1"
     value="-0.518097847913033"/>
      <property name="total energy" method="CCSD" stateSymmetry="1" stateNumber="1"
     value="-1054.13238579149"/>
      <property name="energy" method="CCSD[T]" stateSymmetry="1" stateNumber="1"
     value="-1054.15018469976"/>
      <property name="energy" method="CCSD-T" stateSymmetry="1" stateNumber="1"
     value="-1054.15016269692"/>
      <property name="total energy" method="CCSD(T)" principal="true" stateSymmetry="1"
     stateNumber="1" value="-1054.15015267873"/><!--


 **********************************************************************************************************************************
 DATASETS  * FILE   NREC   LENGTH (MB)   RECORD NAMES
              1      20       63.77       500      610      700      900      950      970     1000      129      960     1100   
                                          VAR    BASINP    GEOM    SYMINP    ZMAT    AOBASIS   BASIS     P2S    ABASIS      S 
                                         1400     1410     1200     1210     1080     1600     1650     1300     1700     1380   
                                           T        V       H0       H01     AOSYM     SMH    MOLCAS    ERIS     OPER     JKOP   

              2       3        0.38       700     1000     2100   
                                         GEOM     BASIS     RHF  

 PROGRAMS   *        TOTAL   CCSD(T)        HF       INT   CCSD(T)        HF       INT
 CPU TIMES  *        13.71      2.89      0.09      3.78      2.96      0.12      3.82
 REAL TIME  *        15.43 SEC
 DISK USED  *       250.05 MB      
 GA USED    *         0.00 MB       (max)       0.00 MB       (current)
 **********************************************************************************************************************************
   -->
   <time start="16:34:30" end="16:34:34" cpu="2.89" system="0.16" real="3.1"/>
   <storage units="megabyte" memory="65.84" sf="0.0" df="170.1" eaf="79.95" ga="0.0"/>
  </jobstep><!--
 SETTING E_COMPLEX      =     -1054.15015268  AU                              
 SETTING E(2)           =     -1054.15015268  AU                              

 DO I                   =         3.00000000   
 SETTING R              =         3.50000000  ANGSTREM                        
 SETTING DIST(3)        =         3.50000000  ANGSTREM                        
  --><jobstep command="HF-SCF" commandset="SCFPRO">
   <!--


 Recomputing integrals since geometry changed

1PROGRAM * SEWARD (Integral evaluation for generally contracted gaussian basis sets)     Author: Roland Lindh, 1990

 Geometry written to block  1 of record 700

 Orientation using atomic masses  
 Molecule type: Linear
 Symmetry elements: X,Y,Z
 Rotational constants:       2.0654565      2.0654565      0.0000000 GHz  (calculated with average atomic masses)

 Point group  D2h 


   --><cml:symmetry pointGroup="D2h"/><!--
   --><cml:atomArray>
    <cml:atom id="a1" elementType="Ar" x3="0.0" y3="0.0" z3="-1.75"/>
    <cml:atom id="a2" elementType="Ar" x3="0.0" y3="0.0" z3="1.75"/>
   </cml:atomArray><!--
   --><cml:bondArray>
   </cml:bondArray><!--

 ATOMIC COORDINATES

 NR  ATOM    CHARGE       X              Y              Z

   1  AR     18.00    0.000000000    0.000000000   -3.307020730
   2  AR     18.00    0.000000000    0.000000000    3.307020730

 NUCLEAR CHARGE:                   36
 NUMBER OF PRIMITIVE AOS:         274
 NUMBER OF SYMMETRY AOS:          224
 NUMBER OF CONTRACTIONS:          168   (  33Ag  +  20B3u +  20B2u +  11B1g +  33B1u +  20B2g +  20B3g +  11Au  )
 NUMBER OF CORE ORBITALS:          10   (   3Ag  +   1B3u +   1B2u +   0B1g +   3B1u +   1B2g +   1B3g +   0Au  )
 NUMBER OF VALENCE ORBITALS:        8   (   2Ag  +   1B3u +   1B2u +   0B1g +   2B1u +   1B2g +   1B3g +   0Au  )


 NUCLEAR REPULSION ENERGY   48.98669020

 EXTRA SYMMETRY OF AOS IN SYMMETRY 1:   1 1 1 1 1 1 1 1 1 1   1 1 1 1 2 1 2 1 2 1   2 1 2 1 2 1 2 1 3 2   1 3 2
 EXTRA SYMMETRY OF AOS IN SYMMETRY 2:   1 1 1 1 1 1 1 1 1 1   1 2 1 2 1 2 1 2 1 2
 EXTRA SYMMETRY OF AOS IN SYMMETRY 3:   1 1 1 1 1 1 1 1 1 1   1 2 1 2 1 2 1 2 1 2
 EXTRA SYMMETRY OF AOS IN SYMMETRY 4:   1 1 1 1 1 1 1 1 2 1   2
 EXTRA SYMMETRY OF AOS IN SYMMETRY 5:   1 1 1 1 1 1 1 1 1 1   1 1 1 1 2 1 2 1 2 1   2 1 2 1 2 1 2 1 3 2   1 3 2
 EXTRA SYMMETRY OF AOS IN SYMMETRY 6:   1 1 1 1 1 1 1 1 1 1   1 2 1 2 1 2 1 2 1 2
 EXTRA SYMMETRY OF AOS IN SYMMETRY 7:   1 1 1 1 1 1 1 1 1 1   1 2 1 2 1 2 1 2 1 2
 EXTRA SYMMETRY OF AOS IN SYMMETRY 8:   1 1 1 1 1 1 1 1 2 1   2

 Eigenvalues of metric

         1 0.201E-03 0.673E-03 0.109E-01 0.482E-01 0.647E-01 0.841E-01 0.940E-01 0.102E+00
         2 0.685E-03 0.547E-01 0.825E-01 0.985E-01 0.106E+00 0.288E+00 0.339E+00 0.347E+00
         3 0.685E-03 0.547E-01 0.825E-01 0.985E-01 0.106E+00 0.288E+00 0.339E+00 0.347E+00
         4 0.841E-01 0.102E+00 0.339E+00 0.341E+00 0.397E+00 0.706E+00 0.117E+01 0.166E+01
         5 0.196E-03 0.640E-03 0.534E-02 0.133E-01 0.378E-01 0.793E-01 0.795E-01 0.850E-01
         6 0.679E-03 0.475E-01 0.607E-01 0.874E-01 0.978E-01 0.202E+00 0.291E+00 0.335E+00
         7 0.679E-03 0.475E-01 0.607E-01 0.874E-01 0.978E-01 0.202E+00 0.291E+00 0.335E+00
         8 0.795E-01 0.947E-01 0.335E+00 0.339E+00 0.364E+00 0.692E+00 0.110E+01 0.166E+01


 Contracted 2-electron integrals neglected if value below      1.0D-11
 AO integral compression algorithm  1   Integral accuracy      1.0D-11

     79.430 MB (compressed) written to integral file ( 41.6%)

     Node minimum: 79.430 MB, node maximum: 79.430 MB


 NUMBER OF SORTED TWO-ELECTRON INTEGRALS:   13027854.     BUFFER LENGTH:  32768
 NUMBER OF SEGMENTS:   2  SEGMENT LENGTH:    6670587      RECORD LENGTH: 524288

 Memory used in sort:       7.23 MW

 SORT1 READ    23909504. AND WROTE     9952859. INTEGRALS IN     29 RECORDS. CPU TIME:     0.44 SEC, REAL TIME:     0.54 SEC
 SORT2 READ     9952859. AND WROTE    13027854. INTEGRALS IN    303 RECORDS. CPU TIME:     0.33 SEC, REAL TIME:     0.38 SEC

 FILE SIZES:   FILE 1:    47.7 MBYTE,  FILE 4:   121.7 MBYTE,   TOTAL:    169.4 MBYTE

 OPERATOR DM      FOR CENTER  0  COORDINATES:    0.000000    0.000000    0.000000


 **********************************************************************************************************************************
 DATASETS  * FILE   NREC   LENGTH (MB)   RECORD NAMES
              1      19       47.74       500      610      700      900      950      970     1000      129      960     1100   
                                          VAR    BASINP    GEOM    SYMINP    ZMAT    AOBASIS   BASIS     P2S    ABASIS      S 
                                         1400     1410     1200     1210     1080     1600     1650     1300     1700   
                                           T        V       H0       H01     AOSYM     SMH    MOLCAS    ERIS     OPER   

              2       3        0.38       700     1000     2100   
                                         GEOM     BASIS     RHF  

 PROGRAMS   *        TOTAL       INT   CCSD(T)        HF       INT   CCSD(T)        HF       INT
 CPU TIMES  *        17.46      3.75      2.89      0.09      3.78      2.96      0.12      3.82
 REAL TIME  *        19.41 SEC
 DISK USED  *       250.05 MB      
 GA USED    *         0.00 MB       (max)       0.00 MB       (current)
 **********************************************************************************************************************************

1PROGRAM * RHF-SCF (CLOSED SHELL)       Authors: W. Meyer, H.-J. Werner


 NUMBER OF ELECTRONS:      18+   18-
 CONVERGENCE THRESHOLDS:    1.00E-05 (Density)    1.00E-07 (Energy)
 MAX. NUMBER OF ITERATIONS:       60
 INTERPOLATION TYPE:            DIIS
 INTERPOLATION STEPS:              2 (START)      1 (STEP)
 LEVEL SHIFTS:                  0.00 (CLOSED)  0.00 (OPEN) 



 Molecular orbitals read from record     2100.2  Type=RHF/CANONICAL (state 1.1)

 Molecular orbital dump at record        2100.2

 ITERATION    DDIFF          GRAD             ENERGY        2-EL.EN.            DIPOLE MOMENTS         DIIS
    1      0.000D+00      0.000D+00     -1053.63252173    903.674548    0.00000    0.00000    0.00000    0
    2      0.000D+00      0.901D-04     -1053.63252761    903.690536    0.00000    0.00000    0.00000    1
    3      0.166D-03      0.130D-04     -1053.63252776    903.685277    0.00000    0.00000    0.00000    2
    4      0.298D-04      0.293D-05     -1053.63252776    903.686815    0.00000    0.00000    0.00000    3
    5      0.632D-05      0.519D-06     -1053.63252776    903.686724    0.00000    0.00000    0.00000    0

 Final occupancy:   5   2   2   0   5   2   2   0

 !RHF STATE 1.1 Energy              -1053.632527759877
   --><property name="Energy" method="RHF" principal="true" stateSymmetry="1" stateNumber="1"
     value="-1053.63252775988"/><!--
 Nuclear energy                        48.98669020
 One-electron energy                -1554.46258007
 Two-electron energy                  451.84336211
 Virial quotient                       -0.99999380
 !RHF STATE 1.1 Dipole moment           0.00000000     0.00000000     0.00000000
 Dipole moment /Debye                   0.00000000     0.00000000     0.00000000
   --><property name="Dipole moment" method="RHF" principal="true" stateSymmetry="1"
     stateNumber="1" value="0.0 0.0 0.0"/><!--

 Orbital energies:

         1.1          2.1          3.1          4.1          5.1          6.1          7.1
   -118.609730   -12.321622    -9.570907    -1.278723    -0.603157     0.108699     0.136421

         1.2          2.2          3.2          4.2
     -9.570908    -0.592668     0.101400     0.287562

         1.3          2.3          3.3          4.3
     -9.570908    -0.592668     0.101400     0.287562

         1.4          2.4
      0.296220     0.768933

         1.5          2.5          3.5          4.5          5.5          6.5          7.5
   -118.609730   -12.321624    -9.570907    -1.275742    -0.578934     0.088750     0.226733

         1.6          2.6          3.6          4.6
     -9.570908    -0.588942     0.131842     0.407568

         1.7          2.7          3.7          4.7
     -9.570908    -0.588942     0.131842     0.407568

         1.8          2.8
      0.334956     0.789873


 **********************************************************************************************************************************
 DATASETS  * FILE   NREC   LENGTH (MB)   RECORD NAMES
              1      19       47.74       500      610      700      900      950      970     1000      129      960     1100   
                                          VAR    BASINP    GEOM    SYMINP    ZMAT    AOBASIS   BASIS     P2S    ABASIS      S 
                                         1400     1410     1200     1210     1080     1600     1650     1300     1700   
                                           T        V       H0       H01     AOSYM     SMH    MOLCAS    ERIS     OPER   

              2       3        0.38       700     1000     2100   
                                         GEOM     BASIS     RHF  

 PROGRAMS   *        TOTAL        HF       INT   CCSD(T)        HF       INT   CCSD(T)        HF       INT
 CPU TIMES  *        17.55      0.09      3.75      2.89      0.09      3.78      2.96      0.12      3.82
 REAL TIME  *        19.51 SEC
 DISK USED  *       250.05 MB      
 GA USED    *         0.00 MB       (max)       0.00 MB       (current)
 **********************************************************************************************************************************
   -->
   <time start="16:34:34" end="16:34:38" cpu="3.84" system="0.22" real="4.08"/>
   <storage units="megabyte" memory="65.84" sf="0.0" df="170.1" eaf="79.95" ga="0.0"/>
  </jobstep><!--
  --><jobstep command="CCSD(T)" commandset="CCSD">
   <!--


1PROGRAM * CCSD (Closed-shell coupled cluster)     Authors: C. Hampel, H.-J. Werner, 1991, M. Deegan, P.J. Knowles, 1992


 Convergence thresholds:  THRVAR = 1.00D-08  THRDEN = 1.00D-06

 CCSD(T)     terms to be evaluated (factor= 1.000)


 Number of core orbitals:          10 (   3   1   1   0   3   1   1   0 )
 Number of closed-shell orbitals:   8 (   2   1   1   0   2   1   1   0 )
 Number of external orbitals:     150 (  28  18  18  11  28  18  18  11 )

 Molecular orbitals read from record     2100.2  Type=RHF/CANONICAL (state 1.1)

 Number of N-1 electron functions:               8
 Number of N-2 electron functions:              36
 Number of singly external CSFs:               184
 Number of doubly external CSFs:             92912
 Total number of CSFs:                       93097

 Length of J-op  integral file:               0.00 MB
 Length of K-op  integral file:               0.31 MB
 Length of 3-ext integral record:             0.00 MB

 Memory could be reduced to 5.15 Mwords without degradation in triples

 Integral transformation finished. Total CPU:   0.13 sec, npass=  1  Memory used:   1.71 MW

 Reference energy:                  -1053.63252776

 MP2 singlet pair energy:              -0.30040485
 MP2 triplet pair energy:              -0.16534799
 MP2 correlation energy:               -0.46575284
 MP2 total energy:                  -1054.09828060

 SCS-MP2 correlation energy:           -0.46336902   (PS=  1.200000  PT=  0.333333)
 SCS-MP2 total energy:              -1054.09589678

 ITER.      SQ.NORM     CORR.ENERGY   TOTAL ENERGY   ENERGY CHANGE        DEN1      VAR(S)    VAR(P)  DIIS     TIME
   1      1.14644539    -0.49895188 -1054.13147964    -0.03319903    -0.02515875  0.11D-03  0.14D-02  1  1     0.30
   2      1.15258458    -0.50014438 -1054.13267214    -0.00119250    -0.00851848  0.30D-05  0.45D-04  2  2     0.47
   3      1.15326407    -0.50009008 -1054.13261784     0.00005430    -0.00061778  0.18D-06  0.23D-05  3  3     0.64
   4      1.15339043    -0.50010283 -1054.13263059    -0.00001275    -0.00004563  0.22D-07  0.75D-07  4  4     0.81
   5      1.15340709    -0.50010288 -1054.13263064    -0.00000005    -0.00000807  0.14D-08  0.32D-08  5  5     0.98
   6      1.15340870    -0.50010230 -1054.13263006     0.00000057    -0.00000089  0.21D-09  0.18D-09  6  6     1.15

 Norm of t1 vector:      0.01252661      S-energy:    -0.00000004      T1 diagnostic:  0.00221441
                                                                       D1 diagnostic:  0.00359020

 Total CPU time for triples:      1.77 sec


 RESULTS
 =======

  Reference energy                  -1053.632527759877
  CCSD singlet pair energy             -0.339760692018
  CCSD triplet pair energy             -0.160341567525
  CCSD correlation energy              -0.500102302182

  Triples (T) contribution             -0.017733900070
  Total correlation energy             -0.517836202253

  CCSD total energy                 -1054.132630062060
  CCSD[T] energy                    -1054.150396115994
  CCSD-T energy                     -1054.150374073550
 !CCSD(T) total energy              -1054.150363962130

 Timing summary (sec):

 STEP                 CPU(USER)    SYS     CPU(TOT)    WALL
 Transformation          0.13      0.02      0.15      0.15
 CCSD iterations         1.03      0.06      1.09      1.09
 Triples                 1.77      0.03      1.80      1.96

 Program statistics:

 Available memory in ccsd:                 7999644
 Min. memory needed in ccsd:                301383
 Max. memory used in ccsd:                  379719
 Max. memory used in cckext:                367247 ( 6 integral passes)

   --><property name="energy" method="Reference" stateSymmetry="1" stateNumber="1"
     value="-1053.63252775988"/>
      <property name="singlet pair energy" method="CCSD" stateSymmetry="1" stateNumber="1"
     value="-0.339760692018289"/>
      <property name="triplet pair energy" method="CCSD" stateSymmetry="1" stateNumber="1"
     value="-0.160341567525419"/>
      <property name="correlation energy" method="CCSD" stateSymmetry="1" stateNumber="1"
     value="-0.500102302182437"/>
      <property name="contribution" method="Triples (T)" stateSymmetry="1" stateNumber="1"
     value="-0.177339000701504E-01"/>
      <property name="correlation energy" method="Total" stateSymmetry="1" stateNumber="1"
     value="-0.517836202252587"/>
      <property name="total energy" method="CCSD" stateSymmetry="1" stateNumber="1"
     value="-1054.13263006206"/>
      <property name="energy" method="CCSD[T]" stateSymmetry="1" stateNumber="1"
     value="-1054.15039611599"/>
      <property name="energy" method="CCSD-T" stateSymmetry="1" stateNumber="1"
     value="-1054.15037407355"/>
      <property name="total energy" method="CCSD(T)" principal="true" stateSymmetry="1"
     stateNumber="1" value="-1054.15036396213"/><!--


 **********************************************************************************************************************************
 DATASETS  * FILE   NREC   LENGTH (MB)   RECORD NAMES
              1      20       63.68       500      610      700      900      950      970     1000      129      960     1100   
                                          VAR    BASINP    GEOM    SYMINP    ZMAT    AOBASIS   BASIS     P2S    ABASIS      S 
                                         1400     1410     1200     1210     1080     1600     1650     1300     1700     1380   
                                           T        V       H0       H01     AOSYM     SMH    MOLCAS    ERIS     OPER     JKOP   

              2       3        0.38       700     1000     2100   
                                         GEOM     BASIS     RHF  

 PROGRAMS   *        TOTAL   CCSD(T)        HF       INT   CCSD(T)        HF       INT   CCSD(T)        HF       INT
 CPU TIMES  *        20.48      2.93      0.09      3.75      2.89      0.09      3.78      2.96      0.12      3.82
 REAL TIME  *        22.72 SEC
 DISK USED  *       250.05 MB      
 GA USED    *         0.00 MB       (max)       0.00 MB       (current)
 **********************************************************************************************************************************
   -->
   <time start="16:34:38" end="16:34:41" cpu="2.93" system="0.12" real="3.21"/>
   <storage units="megabyte" memory="65.84" sf="0.0" df="170.1" eaf="79.95" ga="0.0"/>
  </jobstep><!--
 SETTING E_COMPLEX      =     -1054.15036396  AU                              
 SETTING E(3)           =     -1054.15036396  AU                              

 DO I                   =         4.00000000   
 SETTING R              =         3.60000000  ANGSTREM                        
 SETTING DIST(4)        =         3.60000000  ANGSTREM                        
  --><jobstep command="HF-SCF" commandset="SCFPRO">
   <!--


 Recomputing integrals since geometry changed

1PROGRAM * SEWARD (Integral evaluation for generally contracted gaussian basis sets)     Author: Roland Lindh, 1990

 Geometry written to block  1 of record 700

 Orientation using atomic masses  
 Molecule type: Linear
 Symmetry elements: X,Y,Z
 Rotational constants:       1.9523026      1.9523026      0.0000000 GHz  (calculated with average atomic masses)

 Point group  D2h 


   --><cml:symmetry pointGroup="D2h"/><!--
   --><cml:atomArray>
    <cml:atom id="a1" elementType="Ar" x3="0.0" y3="0.0" z3="-1.8"/>
    <cml:atom id="a2" elementType="Ar" x3="0.0" y3="0.0" z3="1.8"/>
   </cml:atomArray><!--
   --><cml:bondArray>
   </cml:bondArray><!--

 ATOMIC COORDINATES

 NR  ATOM    CHARGE       X              Y              Z

   1  AR     18.00    0.000000000    0.000000000   -3.401507037
   2  AR     18.00    0.000000000    0.000000000    3.401507037

 NUCLEAR CHARGE:                   36
 NUMBER OF PRIMITIVE AOS:         274
 NUMBER OF SYMMETRY AOS:          224
 NUMBER OF CONTRACTIONS:          168   (  33Ag  +  20B3u +  20B2u +  11B1g +  33B1u +  20B2g +  20B3g +  11Au  )
 NUMBER OF CORE ORBITALS:          10   (   3Ag  +   1B3u +   1B2u +   0B1g +   3B1u +   1B2g +   1B3g +   0Au  )
 NUMBER OF VALENCE ORBITALS:        8   (   2Ag  +   1B3u +   1B2u +   0B1g +   2B1u +   1B2g +   1B3g +   0Au  )


 NUCLEAR REPULSION ENERGY   47.62594881

 EXTRA SYMMETRY OF AOS IN SYMMETRY 1:   1 1 1 1 1 1 1 1 1 1   1 1 1 1 2 1 2 1 2 1   2 1 2 1 2 1 2 1 3 2   1 3 2
 EXTRA SYMMETRY OF AOS IN SYMMETRY 2:   1 1 1 1 1 1 1 1 1 1   1 2 1 2 1 2 1 2 1 2
 EXTRA SYMMETRY OF AOS IN SYMMETRY 3:   1 1 1 1 1 1 1 1 1 1   1 2 1 2 1 2 1 2 1 2
 EXTRA SYMMETRY OF AOS IN SYMMETRY 4:   1 1 1 1 1 1 1 1 2 1   2
 EXTRA SYMMETRY OF AOS IN SYMMETRY 5:   1 1 1 1 1 1 1 1 1 1   1 1 1 1 2 1 2 1 2 1   2 1 2 1 2 1 2 1 3 2   1 3 2
 EXTRA SYMMETRY OF AOS IN SYMMETRY 6:   1 1 1 1 1 1 1 1 1 1   1 2 1 2 1 2 1 2 1 2
 EXTRA SYMMETRY OF AOS IN SYMMETRY 7:   1 1 1 1 1 1 1 1 1 1   1 2 1 2 1 2 1 2 1 2
 EXTRA SYMMETRY OF AOS IN SYMMETRY 8:   1 1 1 1 1 1 1 1 2 1   2

 Eigenvalues of metric

         1 0.201E-03 0.675E-03 0.110E-01 0.482E-01 0.680E-01 0.841E-01 0.940E-01 0.101E+00
         2 0.685E-03 0.546E-01 0.828E-01 0.984E-01 0.106E+00 0.288E+00 0.339E+00 0.344E+00
         3 0.685E-03 0.546E-01 0.828E-01 0.984E-01 0.106E+00 0.288E+00 0.339E+00 0.344E+00
         4 0.841E-01 0.101E+00 0.339E+00 0.340E+00 0.396E+00 0.704E+00 0.117E+01 0.166E+01
         5 0.196E-03 0.643E-03 0.577E-02 0.157E-01 0.385E-01 0.799E-01 0.821E-01 0.854E-01
         6 0.679E-03 0.480E-01 0.629E-01 0.894E-01 0.979E-01 0.206E+00 0.299E+00 0.338E+00
         7 0.679E-03 0.480E-01 0.629E-01 0.894E-01 0.979E-01 0.206E+00 0.299E+00 0.338E+00
         8 0.799E-01 0.955E-01 0.336E+00 0.339E+00 0.366E+00 0.694E+00 0.110E+01 0.166E+01


 Contracted 2-electron integrals neglected if value below      1.0D-11
 AO integral compression algorithm  1   Integral accuracy      1.0D-11

     79.167 MB (compressed) written to integral file ( 41.5%)

     Node minimum: 79.167 MB, node maximum: 79.167 MB


 NUMBER OF SORTED TWO-ELECTRON INTEGRALS:   13027854.     BUFFER LENGTH:  32768
 NUMBER OF SEGMENTS:   2  SEGMENT LENGTH:    6670587      RECORD LENGTH: 524288

 Memory used in sort:       7.23 MW

 SORT1 READ    23909504. AND WROTE     9952227. INTEGRALS IN     29 RECORDS. CPU TIME:     0.45 SEC, REAL TIME:     0.54 SEC
 SORT2 READ     9952227. AND WROTE    13027854. INTEGRALS IN    302 RECORDS. CPU TIME:     0.33 SEC, REAL TIME:     0.38 SEC

 FILE SIZES:   FILE 1:    47.6 MBYTE,  FILE 4:   121.7 MBYTE,   TOTAL:    169.3 MBYTE

 OPERATOR DM      FOR CENTER  0  COORDINATES:    0.000000    0.000000    0.000000


 **********************************************************************************************************************************
 DATASETS  * FILE   NREC   LENGTH (MB)   RECORD NAMES
              1      19       47.65       500      610      700      900      950      970     1000      129      960     1100   
                                          VAR    BASINP    GEOM    SYMINP    ZMAT    AOBASIS   BASIS     P2S    ABASIS      S 
                                         1400     1410     1200     1210     1080     1600     1650     1300     1700   
                                           T        V       H0       H01     AOSYM     SMH    MOLCAS    ERIS     OPER   

              2       3        0.38       700     1000     2100   
                                         GEOM     BASIS     RHF  

 PROGRAMS   *        TOTAL       INT   CCSD(T)        HF       INT   CCSD(T)        HF       INT   CCSD(T)        HF       INT
 CPU TIMES  *        24.24      3.76      2.93      0.09      3.75      2.89      0.09      3.78      2.96      0.12      3.82
 REAL TIME  *        26.94 SEC
 DISK USED  *       250.05 MB      
 GA USED    *         0.00 MB       (max)       0.00 MB       (current)
 **********************************************************************************************************************************

1PROGRAM * RHF-SCF (CLOSED SHELL)       Authors: W. Meyer, H.-J. Werner


 NUMBER OF ELECTRONS:      18+   18-
 CONVERGENCE THRESHOLDS:    1.00E-05 (Density)    1.00E-07 (Energy)
 MAX. NUMBER OF ITERATIONS:       60
 INTERPOLATION TYPE:            DIIS
 INTERPOLATION STEPS:              2 (START)      1 (STEP)
 LEVEL SHIFTS:                  0.00 (CLOSED)  0.00 (OPEN) 



 Molecular orbitals read from record     2100.2  Type=RHF/CANONICAL (state 1.1)

 Molecular orbital dump at record        2100.2

 ITERATION    DDIFF          GRAD             ENERGY        2-EL.EN.            DIPOLE MOMENTS         DIIS
    1      0.000D+00      0.000D+00     -1053.63285481    900.948089    0.00000    0.00000    0.00000    0
    2      0.000D+00      0.748D-04     -1053.63285876    900.960865    0.00000    0.00000    0.00000    1
    3      0.129D-03      0.102D-04     -1053.63285885    900.956629    0.00000    0.00000    0.00000    2
    4      0.232D-04      0.229D-05     -1053.63285885    900.957850    0.00000    0.00000    0.00000    3
    5      0.505D-05      0.364D-06     -1053.63285885    900.957771    0.00000    0.00000    0.00000    0

 Final occupancy:   5   2   2   0   5   2   2   0

 !RHF STATE 1.1 Energy              -1053.632858849378
   --><property name="Energy" method="RHF" principal="true" stateSymmetry="1" stateNumber="1"
     value="-1053.63285884938"/><!--
 Nuclear energy                        47.62594881
 One-electron energy                -1551.73769300
 Two-electron energy                  450.47888534
 Virial quotient                       -0.99999756
 !RHF STATE 1.1 Dipole moment           0.00000000     0.00000000     0.00000000
 Dipole moment /Debye                   0.00000000     0.00000000     0.00000000
   --><property name="Dipole moment" method="RHF" principal="true" stateSymmetry="1"
     stateNumber="1" value="0.0 0.0 0.0"/><!--

 Orbital energies:

         1.1          2.1          3.1          4.1          5.1          6.1          7.1
   -118.609921   -12.321786    -9.571072    -1.278419    -0.601164     0.108645     0.135063

         1.2          2.2          3.2          4.2
     -9.571073    -0.592369     0.101068     0.286398

         1.3          2.3          3.3          4.3
     -9.571073    -0.592369     0.101068     0.286398

         1.4          2.4
      0.297588     0.768823

         1.5          2.5          3.5          4.5          5.5          6.5          7.5
   -118.609921   -12.321787    -9.571072    -1.276121    -0.580947     0.089623     0.223959

         1.6          2.6          3.6          4.6
     -9.571074    -0.589359     0.131437     0.402432

         1.7          2.7          3.7          4.7
     -9.571074    -0.589359     0.131437     0.402432

         1.8          2.8
      0.333024     0.789411


 **********************************************************************************************************************************
 DATASETS  * FILE   NREC   LENGTH (MB)   RECORD NAMES
              1      19       47.65       500      610      700      900      950      970     1000      129      960     1100   
                                          VAR    BASINP    GEOM    SYMINP    ZMAT    AOBASIS   BASIS     P2S    ABASIS      S 
                                         1400     1410     1200     1210     1080     1600     1650     1300     1700   
                                           T        V       H0       H01     AOSYM     SMH    MOLCAS    ERIS     OPER   

              2       3        0.38       700     1000     2100   
                                         GEOM     BASIS     RHF  

 PROGRAMS   *        TOTAL        HF       INT   CCSD(T)        HF       INT   CCSD(T)        HF       INT   CCSD(T)        HF
 CPU TIMES  *        24.33      0.09      3.76      2.93      0.09      3.75      2.89      0.09      3.78      2.96      0.12
 REAL TIME  *        27.04 SEC
 DISK USED  *       250.05 MB      
 GA USED    *         0.00 MB       (max)       0.00 MB       (current)
 **********************************************************************************************************************************
   -->
   <time start="16:34:41" end="16:34:45" cpu="3.85" system="0.19" real="4.32"/>
   <storage units="megabyte" memory="65.84" sf="0.0" df="170.1" eaf="79.95" ga="0.0"/>
  </jobstep><!--
  --><jobstep command="CCSD(T)" commandset="CCSD">
   <!--


1PROGRAM * CCSD (Closed-shell coupled cluster)     Authors: C. Hampel, H.-J. Werner, 1991, M. Deegan, P.J. Knowles, 1992


 Convergence thresholds:  THRVAR = 1.00D-08  THRDEN = 1.00D-06

 CCSD(T)     terms to be evaluated (factor= 1.000)


 Number of core orbitals:          10 (   3   1   1   0   3   1   1   0 )
 Number of closed-shell orbitals:   8 (   2   1   1   0   2   1   1   0 )
 Number of external orbitals:     150 (  28  18  18  11  28  18  18  11 )

 Molecular orbitals read from record     2100.2  Type=RHF/CANONICAL (state 1.1)

 Number of N-1 electron functions:               8
 Number of N-2 electron functions:              36
 Number of singly external CSFs:               184
 Number of doubly external CSFs:             92912
 Total number of CSFs:                       93097

 Length of J-op  integral file:               0.00 MB
 Length of K-op  integral file:               0.31 MB
 Length of 3-ext integral record:             0.00 MB

 Memory could be reduced to 5.15 Mwords without degradation in triples

 Integral transformation finished. Total CPU:   0.10 sec, npass=  1  Memory used:   1.71 MW

 Reference energy:                  -1053.63285885

 MP2 singlet pair energy:              -0.30033560
 MP2 triplet pair energy:              -0.16518179
 MP2 correlation energy:               -0.46551739
 MP2 total energy:                  -1054.09837624

 SCS-MP2 correlation energy:           -0.46318250   (PS=  1.200000  PT=  0.333333)
 SCS-MP2 total energy:              -1054.09604135

 ITER.      SQ.NORM     CORR.ENERGY   TOTAL ENERGY   ENERGY CHANGE        DEN1      VAR(S)    VAR(P)  DIIS     TIME
   1      1.14640725    -0.49876348 -1054.13162233    -0.03324609    -0.02520362  0.11D-03  0.14D-02  1  1     0.27
   2      1.15254769    -0.49995593 -1054.13281478    -0.00119245    -0.00852246  0.30D-05  0.45D-04  2  2     0.44
   3      1.15322589    -0.49990201 -1054.13276086     0.00005392    -0.00061666  0.17D-06  0.23D-05  3  3     0.60
   4      1.15335167    -0.49991486 -1054.13277370    -0.00001285    -0.00004534  0.22D-07  0.74D-07  4  4     0.78
   5      1.15336827    -0.49991487 -1054.13277371    -0.00000001    -0.00000813  0.14D-08  0.32D-08  5  5     0.95
   6      1.15336981    -0.49991430 -1054.13277315     0.00000056    -0.00000085  0.20D-09  0.18D-09  6  6     1.12

 Norm of t1 vector:      0.01248886      S-energy:    -0.00000004      T1 diagnostic:  0.00220774
                                                                       D1 diagnostic:  0.00353712

 Total CPU time for triples:      1.76 sec


 RESULTS
 =======

  Reference energy                  -1053.632858849378
  CCSD singlet pair energy             -0.339715109520
  CCSD triplet pair energy             -0.160199151024
  CCSD correlation energy              -0.499914300869

  Triples (T) contribution             -0.017706246442
  Total correlation energy             -0.517620547311

  CCSD total energy                 -1054.132773150247
  CCSD[T] energy                    -1054.150511669130
  CCSD-T energy                     -1054.150489581421
 !CCSD(T) total energy              -1054.150479396689

 Timing summary (sec):

 STEP                 CPU(USER)    SYS     CPU(TOT)    WALL
 Transformation          0.11      0.03      0.14      0.14
 CCSD iterations         1.01      0.07      1.08      1.09
 Triples                 1.76      0.04      1.80      1.81

 Program statistics:

 Available memory in ccsd:                 7999644
 Min. memory needed in ccsd:                301383
 Max. memory used in ccsd:                  379719
 Max. memory used in cckext:                367247 ( 6 integral passes)

   --><property name="energy" method="Reference" stateSymmetry="1" stateNumber="1"
     value="-1053.63285884938"/>
      <property name="singlet pair energy" method="CCSD" stateSymmetry="1" stateNumber="1"
     value="-0.339715109520357"/>
      <property name="triplet pair energy" method="CCSD" stateSymmetry="1" stateNumber="1"
     value="-0.160199151023823"/>
      <property name="correlation energy" method="CCSD" stateSymmetry="1" stateNumber="1"
     value="-0.49991430086874"/>
      <property name="contribution" method="Triples (T)" stateSymmetry="1" stateNumber="1"
     value="-0.177062464418155E-01"/>
      <property name="correlation energy" method="Total" stateSymmetry="1" stateNumber="1"
     value="-0.517620547310555"/>
      <property name="total energy" method="CCSD" stateSymmetry="1" stateNumber="1"
     value="-1054.13277315025"/>
      <property name="energy" method="CCSD[T]" stateSymmetry="1" stateNumber="1"
     value="-1054.15051166913"/>
      <property name="energy" method="CCSD-T" stateSymmetry="1" stateNumber="1"
     value="-1054.15048958142"/>
      <property name="total energy" method="CCSD(T)" principal="true" stateSymmetry="1"
     stateNumber="1" value="-1054.15047939669"/><!--


 **********************************************************************************************************************************
 DATASETS  * FILE   NREC   LENGTH (MB)   RECORD NAMES
              1      20       63.59       500      610      700      900      950      970     1000      129      960     1100   
                                          VAR    BASINP    GEOM    SYMINP    ZMAT    AOBASIS   BASIS     P2S    ABASIS      S 
                                         1400     1410     1200     1210     1080     1600     1650     1300     1700     1380   
                                           T        V       H0       H01     AOSYM     SMH    MOLCAS    ERIS     OPER     JKOP   

              2       3        0.38       700     1000     2100   
                                         GEOM     BASIS     RHF  

 PROGRAMS   *        TOTAL   CCSD(T)        HF       INT   CCSD(T)        HF       INT   CCSD(T)        HF       INT   CCSD(T)
 CPU TIMES  *        27.23      2.90      0.09      3.76      2.93      0.09      3.75      2.89      0.09      3.78      2.96
 REAL TIME  *        30.09 SEC
 DISK USED  *       250.05 MB      
 GA USED    *         0.00 MB       (max)       0.00 MB       (current)
 **********************************************************************************************************************************
   -->
   <time start="16:34:45" end="16:34:48" cpu="2.9" system="0.15" real="3.05"/>
   <storage units="megabyte" memory="65.84" sf="0.0" df="170.1" eaf="79.95" ga="0.0"/>
  </jobstep><!--
 SETTING E_COMPLEX      =     -1054.15047940  AU                              
 SETTING E(4)           =     -1054.15047940  AU                              

 DO I                   =         5.00000000   
 SETTING R              =         3.70000000  ANGSTREM                        
 SETTING DIST(5)        =         3.70000000  ANGSTREM                        
  --><jobstep command="HF-SCF" commandset="SCFPRO">
   <!--


 Recomputing integrals since geometry changed

1PROGRAM * SEWARD (Integral evaluation for generally contracted gaussian basis sets)     Author: Roland Lindh, 1990

 Geometry written to block  1 of record 700

 Orientation using atomic masses  
 Molecule type: Linear
 Symmetry elements: X,Y,Z
 Rotational constants:       1.8481988      1.8481988      0.0000000 GHz  (calculated with average atomic masses)

 Point group  D2h 


   --><cml:symmetry pointGroup="D2h"/><!--
   --><cml:atomArray>
    <cml:atom id="a1" elementType="Ar" x3="0.0" y3="0.0" z3="-1.85"/>
    <cml:atom id="a2" elementType="Ar" x3="0.0" y3="0.0" z3="1.85"/>
   </cml:atomArray><!--
   --><cml:bondArray>
   </cml:bondArray><!--

 ATOMIC COORDINATES

 NR  ATOM    CHARGE       X              Y              Z

   1  AR     18.00    0.000000000    0.000000000   -3.495993343
   2  AR     18.00    0.000000000    0.000000000    3.495993343

 NUCLEAR CHARGE:                   36
 NUMBER OF PRIMITIVE AOS:         274
 NUMBER OF SYMMETRY AOS:          224
 NUMBER OF CONTRACTIONS:          168   (  33Ag  +  20B3u +  20B2u +  11B1g +  33B1u +  20B2g +  20B3g +  11Au  )
 NUMBER OF CORE ORBITALS:          10   (   3Ag  +   1B3u +   1B2u +   0B1g +   3B1u +   1B2g +   1B3g +   0Au  )
 NUMBER OF VALENCE ORBITALS:        8   (   2Ag  +   1B3u +   1B2u +   0B1g +   2B1u +   1B2g +   1B3g +   0Au  )


 NUCLEAR REPULSION ENERGY   46.33876100

 EXTRA SYMMETRY OF AOS IN SYMMETRY 1:   1 1 1 1 1 1 1 1 1 1   1 1 1 1 2 1 2 1 2 1   2 1 2 1 2 1 2 1 3 2   1 3 2
 EXTRA SYMMETRY OF AOS IN SYMMETRY 2:   1 1 1 1 1 1 1 1 1 1   1 2 1 2 1 2 1 2 1 2
 EXTRA SYMMETRY OF AOS IN SYMMETRY 3:   1 1 1 1 1 1 1 1 1 1   1 2 1 2 1 2 1 2 1 2
 EXTRA SYMMETRY OF AOS IN SYMMETRY 4:   1 1 1 1 1 1 1 1 2 1   2
 EXTRA SYMMETRY OF AOS IN SYMMETRY 5:   1 1 1 1 1 1 1 1 1 1   1 1 1 1 2 1 2 1 2 1   2 1 2 1 2 1 2 1 3 2   1 3 2
 EXTRA SYMMETRY OF AOS IN SYMMETRY 6:   1 1 1 1 1 1 1 1 1 1   1 2 1 2 1 2 1 2 1 2
 EXTRA SYMMETRY OF AOS IN SYMMETRY 7:   1 1 1 1 1 1 1 1 1 1   1 2 1 2 1 2 1 2 1 2
 EXTRA SYMMETRY OF AOS IN SYMMETRY 8:   1 1 1 1 1 1 1 1 2 1   2

 Eigenvalues of metric

         1 0.201E-03 0.678E-03 0.111E-01 0.482E-01 0.708E-01 0.840E-01 0.940E-01 0.100E+00
         2 0.685E-03 0.546E-01 0.832E-01 0.983E-01 0.105E+00 0.287E+00 0.339E+00 0.342E+00
         3 0.685E-03 0.546E-01 0.832E-01 0.983E-01 0.105E+00 0.287E+00 0.339E+00 0.342E+00
         4 0.840E-01 0.100E+00 0.339E+00 0.340E+00 0.394E+00 0.703E+00 0.116E+01 0.166E+01
         5 0.197E-03 0.647E-03 0.616E-02 0.184E-01 0.392E-01 0.802E-01 0.839E-01 0.863E-01
         6 0.680E-03 0.484E-01 0.649E-01 0.911E-01 0.979E-01 0.210E+00 0.306E+00 0.339E+00
         7 0.680E-03 0.484E-01 0.649E-01 0.911E-01 0.979E-01 0.210E+00 0.306E+00 0.339E+00
         8 0.802E-01 0.961E-01 0.337E+00 0.339E+00 0.368E+00 0.695E+00 0.111E+01 0.166E+01


 Contracted 2-electron integrals neglected if value below      1.0D-11
 AO integral compression algorithm  1   Integral accuracy      1.0D-11

     78.905 MB (compressed) written to integral file ( 41.4%)

     Node minimum: 78.905 MB, node maximum: 78.905 MB


 NUMBER OF SORTED TWO-ELECTRON INTEGRALS:   13027854.     BUFFER LENGTH:  32768
 NUMBER OF SEGMENTS:   2  SEGMENT LENGTH:    6670587      RECORD LENGTH: 524288

 Memory used in sort:       7.23 MW

 SORT1 READ    23909504. AND WROTE     9951231. INTEGRALS IN     29 RECORDS. CPU TIME:     0.45 SEC, REAL TIME:     0.54 SEC
 SORT2 READ     9951231. AND WROTE    13027854. INTEGRALS IN    301 RECORDS. CPU TIME:     0.33 SEC, REAL TIME:     0.38 SEC

 FILE SIZES:   FILE 1:    47.5 MBYTE,  FILE 4:   121.7 MBYTE,   TOTAL:    169.2 MBYTE

 OPERATOR DM      FOR CENTER  0  COORDINATES:    0.000000    0.000000    0.000000


 **********************************************************************************************************************************
 DATASETS  * FILE   NREC   LENGTH (MB)   RECORD NAMES
              1      19       47.55       500      610      700      900      950      970     1000      129      960     1100   
                                          VAR    BASINP    GEOM    SYMINP    ZMAT    AOBASIS   BASIS     P2S    ABASIS      S 
                                         1400     1410     1200     1210     1080     1600     1650     1300     1700   
                                           T        V       H0       H01     AOSYM     SMH    MOLCAS    ERIS     OPER   

              2       3        0.38       700     1000     2100   
                                         GEOM     BASIS     RHF  

 PROGRAMS   *        TOTAL       INT   CCSD(T)        HF       INT   CCSD(T)        HF       INT   CCSD(T)        HF       INT
 CPU TIMES  *        30.94      3.71      2.90      0.09      3.76      2.93      0.09      3.75      2.89      0.09      3.78
 REAL TIME  *        34.45 SEC
 DISK USED  *       250.05 MB      
 GA USED    *         0.00 MB       (max)       0.00 MB       (current)
 **********************************************************************************************************************************

1PROGRAM * RHF-SCF (CLOSED SHELL)       Authors: W. Meyer, H.-J. Werner


 NUMBER OF ELECTRONS:      18+   18-
 CONVERGENCE THRESHOLDS:    1.00E-05 (Density)    1.00E-07 (Energy)
 MAX. NUMBER OF ITERATIONS:       60
 INTERPOLATION TYPE:            DIIS
 INTERPOLATION STEPS:              2 (START)      1 (STEP)
 LEVEL SHIFTS:                  0.00 (CLOSED)  0.00 (OPEN) 



 Molecular orbitals read from record     2100.2  Type=RHF/CANONICAL (state 1.1)

 Molecular orbital dump at record        2100.2

 ITERATION    DDIFF          GRAD             ENERGY        2-EL.EN.            DIPOLE MOMENTS         DIIS
    1      0.000D+00      0.000D+00     -1053.63308760    898.370008    0.00000    0.00000    0.00000    0
    2      0.000D+00      0.625D-04     -1053.63309025    898.380140    0.00000    0.00000    0.00000    1
    3      0.957D-04      0.807D-05     -1053.63309030    898.376764    0.00000    0.00000    0.00000    2
    4      0.179D-04      0.177D-05     -1053.63309030    898.377723    0.00000    0.00000    0.00000    3
    5      0.403D-05      0.259D-06     -1053.63309030    898.377651    0.00000    0.00000    0.00000    0

 Final occupancy:   5   2   2   0   5   2   2   0

 !RHF STATE 1.1 Energy              -1053.633090304630
   --><property name="Energy" method="RHF" principal="true" stateSymmetry="1" stateNumber="1"
     value="-1053.63309030463"/><!--
 Nuclear energy                        46.33876100
 One-electron energy                -1549.16067686
 Two-electron energy                  449.18882556
 Virial quotient                       -1.00000028
 !RHF STATE 1.1 Dipole moment           0.00000000     0.00000000     0.00000000
 Dipole moment /Debye                   0.00000000     0.00000000     0.00000000
   --><property name="Dipole moment" method="RHF" principal="true" stateSymmetry="1"
     stateNumber="1" value="0.0 0.0 0.0"/><!--

 Orbital energies:

         1.1          2.1          3.1          4.1          5.1          6.1          7.1
   -118.610065   -12.321910    -9.571196    -1.278188    -0.599492     0.108526     0.133686

         1.2          2.2          3.2          4.2
     -9.571198    -0.592128     0.100762     0.285444

         1.3          2.3          3.3          4.3
     -9.571198    -0.592128     0.100762     0.285444

         1.4          2.4
      0.298935     0.768870

         1.5          2.5          3.5          4.5          5.5          6.5          7.5
   -118.610065   -12.321911    -9.571196    -1.276417    -0.582632     0.090501     0.221206

         1.6          2.6          3.6          4.6
     -9.571198    -0.589696     0.131017     0.397280

         1.7          2.7          3.7          4.7
     -9.571198    -0.589696     0.131017     0.397280

         1.8          2.8
      0.331220     0.788920


 **********************************************************************************************************************************
 DATASETS  * FILE   NREC   LENGTH (MB)   RECORD NAMES
              1      19       47.55       500      610      700      900      950      970     1000      129      960     1100   
                                          VAR    BASINP    GEOM    SYMINP    ZMAT    AOBASIS   BASIS     P2S    ABASIS      S 
                                         1400     1410     1200     1210     1080     1600     1650     1300     1700   
                                           T        V       H0       H01     AOSYM     SMH    MOLCAS    ERIS     OPER   

              2       3        0.38       700     1000     2100   
                                         GEOM     BASIS     RHF  

 PROGRAMS   *        TOTAL        HF       INT   CCSD(T)        HF       INT   CCSD(T)        HF       INT   CCSD(T)        HF
 CPU TIMES  *        31.03      0.09      3.71      2.90      0.09      3.76      2.93      0.09      3.75      2.89      0.09
 REAL TIME  *        34.55 SEC
 DISK USED  *       250.05 MB      
 GA USED    *         0.00 MB       (max)       0.00 MB       (current)
 **********************************************************************************************************************************
   -->
   <time start="16:34:48" end="16:34:53" cpu="3.8" system="0.2" real="4.46"/>
   <storage units="megabyte" memory="65.84" sf="0.0" df="170.1" eaf="79.95" ga="0.0"/>
  </jobstep><!--
  --><jobstep command="CCSD(T)" commandset="CCSD">
   <!--


1PROGRAM * CCSD (Closed-shell coupled cluster)     Authors: C. Hampel, H.-J. Werner, 1991, M. Deegan, P.J. Knowles, 1992


 Convergence thresholds:  THRVAR = 1.00D-08  THRDEN = 1.00D-06

 CCSD(T)     terms to be evaluated (factor= 1.000)


 Number of core orbitals:          10 (   3   1   1   0   3   1   1   0 )
 Number of closed-shell orbitals:   8 (   2   1   1   0   2   1   1   0 )
 Number of external orbitals:     150 (  28  18  18  11  28  18  18  11 )

 Molecular orbitals read from record     2100.2  Type=RHF/CANONICAL (state 1.1)

 Number of N-1 electron functions:               8
 Number of N-2 electron functions:              36
 Number of singly external CSFs:               184
 Number of doubly external CSFs:             92912
 Total number of CSFs:                       93097

 Length of J-op  integral file:               0.00 MB
 Length of K-op  integral file:               0.31 MB
 Length of 3-ext integral record:             0.00 MB

 Memory could be reduced to 5.15 Mwords without degradation in triples

 Integral transformation finished. Total CPU:   0.12 sec, npass=  1  Memory used:   1.71 MW

 Reference energy:                  -1053.63309030

 MP2 singlet pair energy:              -0.30027886
 MP2 triplet pair energy:              -0.16504460
 MP2 correlation energy:               -0.46532347
 MP2 total energy:                  -1054.09841377

 SCS-MP2 correlation energy:           -0.46302906   (PS=  1.200000  PT=  0.333333)
 SCS-MP2 total energy:              -1054.09611936

 ITER.      SQ.NORM     CORR.ENERGY   TOTAL ENERGY   ENERGY CHANGE        DEN1      VAR(S)    VAR(P)  DIIS     TIME
   1      1.14637363    -0.49860832 -1054.13169862    -0.03328485    -0.02524058  0.11D-03  0.14D-02  1  1     0.30
   2      1.15251495    -0.49980071 -1054.13289102    -0.00119239    -0.00852576  0.30D-05  0.45D-04  2  2     0.46
   3      1.15319204    -0.49974710 -1054.13283741     0.00005361    -0.00061572  0.16D-06  0.23D-05  3  3     0.64
   4      1.15331731    -0.49976003 -1054.13285033    -0.00001293    -0.00004509  0.22D-07  0.74D-07  4  4     0.82
[...]
   --><property name="Energy" method="RHF" principal="true" stateSymmetry="1" stateNumber="1"
     value="-1053.63360973619"/><!--
 Nuclear energy                        13.71627326
 One-electron energy                -1483.90738651
 Two-electron energy                  416.55750351
 Virial quotient                       -1.00000694
 !RHF STATE 1.1 Dipole moment           0.00000000     0.00000000     0.00000000
 Dipole moment /Debye                   0.00000000     0.00000000     0.00000000
   --><property name="Dipole moment" method="RHF" principal="true" stateSymmetry="1"
     stateNumber="1" value="0.0 0.0 0.0"/><!--

 Orbital energies:

         1.1          2.1          3.1          4.1          5.1          6.1          7.1
   -118.610475   -12.322274    -9.571563    -1.277430    -0.591075     0.109454     0.120103

         1.2          2.2          3.2          4.2
     -9.571563    -0.591075     0.109556     0.314343

         1.3          2.3          3.3          4.3
     -9.571563    -0.591075     0.109556     0.314343

         1.4          2.4
      0.314343     0.778070

         1.5          2.5          3.5          4.5          5.5          6.5          7.5
   -118.610475   -12.322274    -9.571563    -1.277430    -0.591075     0.109667     0.120104

         1.6          2.6          3.6          4.6
     -9.571563    -0.591075     0.109566     0.314343

         1.7          2.7          3.7          4.7
     -9.571563    -0.591075     0.109566     0.314343

         1.8          2.8
      0.314343     0.778070


 **********************************************************************************************************************************
 DATASETS  * FILE   NREC   LENGTH (MB)   RECORD NAMES
              1      19       40.51       500      610      700      900      950      970     1000      129      960     1100   
                                          VAR    BASINP    GEOM    SYMINP    ZMAT    AOBASIS   BASIS     P2S    ABASIS      S 
                                         1400     1410     1200     1210     1080     1600     1650     1300     1700   
                                           T        V       H0       H01     AOSYM     SMH    MOLCAS    ERIS     OPER   

              2       3        0.38       700     1000     2100   
                                         GEOM     BASIS     RHF  

 PROGRAMS   *        TOTAL        HF       INT   CCSD(T)        HF       INT   CCSD(T)        HF       INT   CCSD(T)        HF
 CPU TIMES  *       497.51      0.04      1.66      2.96      0.04      1.66      2.93      0.05      1.68      2.97      0.05
 REAL TIME  *       547.76 SEC
 DISK USED  *       250.05 MB      
 GA USED    *         0.00 MB       (max)       0.00 MB       (current)
 **********************************************************************************************************************************
   -->
   <time start="16:43:24" end="16:43:26" cpu="1.71" system="0.17" real="1.89"/>
   <storage units="megabyte" memory="65.84" sf="0.0" df="170.1" eaf="79.95" ga="0.0"/>
  </jobstep><!--
  --><jobstep command="CCSD(T)" commandset="CCSD">
   <!--


1PROGRAM * CCSD (Closed-shell coupled cluster)     Authors: C. Hampel, H.-J. Werner, 1991, M. Deegan, P.J. Knowles, 1992


 Convergence thresholds:  THRVAR = 1.00D-08  THRDEN = 1.00D-06

 CCSD(T)     terms to be evaluated (factor= 1.000)


 Number of core orbitals:          10 (   3   1   1   0   3   1   1   0 )
 Number of closed-shell orbitals:   8 (   2   1   1   0   2   1   1   0 )
 Number of external orbitals:     150 (  28  18  18  11  28  18  18  11 )

 Molecular orbitals read from record     2100.2  Type=RHF/CANONICAL (state 1.1)

 Number of N-1 electron functions:               8
 Number of N-2 electron functions:              36
 Number of singly external CSFs:               184
 Number of doubly external CSFs:             92912
 Total number of CSFs:                       93097

 Length of J-op  integral file:               0.00 MB
 Length of K-op  integral file:               0.31 MB
 Length of 3-ext integral record:             0.00 MB

 Memory could be reduced to 5.15 Mwords without degradation in triples

 Integral transformation finished. Total CPU:   0.13 sec, npass=  1  Memory used:   1.71 MW

 Reference energy:                  -1053.63360974

 MP2 singlet pair energy:              -0.29997068
 MP2 triplet pair energy:              -0.16432383
 MP2 correlation energy:               -0.46429451
 MP2 total energy:                  -1054.09790425

 SCS-MP2 correlation energy:           -0.46221076   (PS=  1.200000  PT=  0.333333)
 SCS-MP2 total energy:              -1054.09582049

 ITER.      SQ.NORM     CORR.ENERGY   TOTAL ENERGY   ENERGY CHANGE        DEN1      VAR(S)    VAR(P)  DIIS     TIME
   1      1.14615044    -0.49779359 -1054.13140333    -0.03349908    -0.02544418  0.11D-03  0.14D-02  1  1     0.30
   2      1.15229394    -0.49898531 -1054.13259504    -0.00119171    -0.00854407  0.30D-05  0.45D-04  2  2     0.46
   3      1.15296436    -0.49893331 -1054.13254304     0.00005200    -0.00061038  0.13D-06  0.23D-05  3  3     0.65
   4      1.15308667    -0.49894667 -1054.13255641    -0.00001337    -0.00004396  0.21D-07  0.72D-07  4  4     0.83
   5      1.15310286    -0.49894647 -1054.13255620     0.00000021    -0.00000844  0.11D-08  0.29D-08  5  5     1.01
   6      1.15310395    -0.49894596 -1054.13255570     0.00000050    -0.00000055  0.20D-09  0.14D-09  6  6     1.18

 Norm of t1 vector:      0.01237805      S-energy:    -0.00000004      T1 diagnostic:  0.00218815
                                                                       D1 diagnostic:  0.00314581

 Total CPU time for triples:      1.75 sec


 RESULTS
 =======

  Reference energy                  -1053.633609736187
  CCSD singlet pair energy             -0.339480502717
  CCSD triplet pair energy             -0.159465416410
  CCSD correlation energy              -0.498945963798

  Triples (T) contribution             -0.017555352241
  Total correlation energy             -0.516501316039

  CCSD total energy                 -1054.132555699985
  CCSD[T] energy                    -1054.150144131178
  CCSD-T energy                     -1054.150121432902
 !CCSD(T) total energy              -1054.150111052226

 Timing summary (sec):

 STEP                 CPU(USER)    SYS     CPU(TOT)    WALL
 Transformation          0.13      0.02      0.15      0.15
 CCSD iterations         1.05      0.07      1.12      1.12
 Triples                 1.75      0.04      1.79      1.91

 Program statistics:

 Available memory in ccsd:                 7999644
 Min. memory needed in ccsd:                301383
 Max. memory used in ccsd:                  379719
 Max. memory used in cckext:                367247 ( 6 integral passes)

   --><property name="energy" method="Reference" stateSymmetry="1" stateNumber="1"
     value="-1053.63360973619"/>
      <property name="singlet pair energy" method="CCSD" stateSymmetry="1" stateNumber="1"
     value="-0.339480502716884"/>
      <property name="triplet pair energy" method="CCSD" stateSymmetry="1" stateNumber="1"
     value="-0.159465416409908"/>
      <property name="correlation energy" method="CCSD" stateSymmetry="1" stateNumber="1"
     value="-0.49894596379827"/>
      <property name="contribution" method="Triples (T)" stateSymmetry="1" stateNumber="1"
     value="-0.175553522409087E-01"/>
      <property name="correlation energy" method="Total" stateSymmetry="1" stateNumber="1"
     value="-0.516501316039178"/>
      <property name="total energy" method="CCSD" stateSymmetry="1" stateNumber="1"
     value="-1054.13255569999"/>
      <property name="energy" method="CCSD[T]" stateSymmetry="1" stateNumber="1"
     value="-1054.15014413118"/>
      <property name="energy" method="CCSD-T" stateSymmetry="1" stateNumber="1"
     value="-1054.1501214329"/>
      <property name="total energy" method="CCSD(T)" principal="true" stateSymmetry="1"
     stateNumber="1" value="-1054.15011105223"/><!--


 **********************************************************************************************************************************
 DATASETS  * FILE   NREC   LENGTH (MB)   RECORD NAMES
              1      20       56.44       500      610      700      900      950      970     1000      129      960     1100   
                                          VAR    BASINP    GEOM    SYMINP    ZMAT    AOBASIS   BASIS     P2S    ABASIS      S 
                                         1400     1410     1200     1210     1080     1600     1650     1300     1700     1380   
                                           T        V       H0       H01     AOSYM     SMH    MOLCAS    ERIS     OPER     JKOP   

              2       3        0.38       700     1000     2100   
                                         GEOM     BASIS     RHF  

 PROGRAMS   *        TOTAL   CCSD(T)        HF       INT   CCSD(T)        HF       INT   CCSD(T)        HF       INT   CCSD(T)
 CPU TIMES  *       500.47      2.96      0.04      1.66      2.96      0.04      1.66      2.93      0.05      1.68      2.97
 REAL TIME  *       550.96 SEC
 DISK USED  *       250.05 MB      
 GA USED    *         0.00 MB       (max)       0.00 MB       (current)
 **********************************************************************************************************************************
   -->
   <time start="16:43:26" end="16:43:29" cpu="2.96" system="0.14" real="3.2"/>
   <storage units="megabyte" memory="65.84" sf="0.0" df="170.1" eaf="79.95" ga="0.0"/>
  </jobstep><!--
 SETTING E_COMPLEX      =     -1054.15011105  AU                              
 SETTING E(93)          =     -1054.15011105  AU                              
                                                                                                                                                                                                                                                                

    DIST         E
     3.3   -1054.149796
     3.4   -1054.150153
     3.5   -1054.150364
     3.6   -1054.150479
     3.7   -1054.150533
     3.8   -1054.150547
     3.9   -1054.150537
     4.0   -1054.150514
     4.1   -1054.150483
     4.2   -1054.150450
     4.3   -1054.150416
     4.4   -1054.150383
     4.5   -1054.150353
     4.6   -1054.150326
     4.7   -1054.150301
     4.8   -1054.150279
     4.9   -1054.150260
     5.0   -1054.150243
     5.1   -1054.150228
     5.2   -1054.150215
     5.3   -1054.150204
     5.4   -1054.150194
     5.5   -1054.150185
     5.6   -1054.150177
     5.7   -1054.150170
     5.8   -1054.150164
     5.9   -1054.150158
     6.0   -1054.150153
     6.1   -1054.150149
     6.2   -1054.150145
     6.3   -1054.150142
     6.4   -1054.150139
     6.5   -1054.150136
     6.6   -1054.150134
     6.7   -1054.150131
     6.8   -1054.150129
     6.9   -1054.150128
     7.0   -1054.150126
     7.1   -1054.150125
     7.2   -1054.150123
     7.3   -1054.150122
     7.4   -1054.150121
     7.5   -1054.150120
     7.6   -1054.150120
     7.7   -1054.150119
     7.8   -1054.150118
     7.9   -1054.150117
     8.0   -1054.150117
     8.1   -1054.150116
     8.2   -1054.150116
     8.3   -1054.150116
     8.4   -1054.150115
     8.5   -1054.150115
     8.6   -1054.150115
     8.7   -1054.150114
     8.8   -1054.150114
     8.9   -1054.150114
     9.0   -1054.150114
     9.1   -1054.150113
     9.2   -1054.150113
     9.3   -1054.150113
     9.4   -1054.150113
     9.5   -1054.150113
     9.6   -1054.150113
     9.7   -1054.150112
     9.8   -1054.150112
     9.9   -1054.150112
    10.0   -1054.150112
    10.1   -1054.150112
    10.2   -1054.150112
    10.3   -1054.150112
    10.4   -1054.150112
    10.5   -1054.150112
    10.6   -1054.150112
    10.7   -1054.150112
    10.8   -1054.150112
    10.9   -1054.150112
    11.0   -1054.150112
    11.1   -1054.150111
    11.2   -1054.150111
    11.3   -1054.150111
    11.4   -1054.150111
    11.5   -1054.150111
    11.6   -1054.150111
    11.7   -1054.150111
    11.8   -1054.150111
    11.9   -1054.150111
    12.0   -1054.150111
    12.1   -1054.150111
    12.2   -1054.150111
    12.3   -1054.150111
    12.4   -1054.150111
    12.5   -1054.150111
                                                  
-->
<table xmlns="http://www.w3.org/1999/xhtml" id="table1">
<thead><tr><th>DIST</th><th>E</th></tr></thead><tbody>
<tr><td>    3.3</td><td>   -1054.149796</td></tr>
<tr><td>    3.4</td><td>   -1054.150153</td></tr>
<tr><td>    3.5</td><td>   -1054.150364</td></tr>
<tr><td>    3.6</td><td>   -1054.150479</td></tr>
<tr><td>    3.7</td><td>   -1054.150533</td></tr>
<tr><td>    3.8</td><td>   -1054.150547</td></tr>
<tr><td>    3.9</td><td>   -1054.150537</td></tr>
<tr><td>    4.0</td><td>   -1054.150514</td></tr>
<tr><td>    4.1</td><td>   -1054.150483</td></tr>
<tr><td>    4.2</td><td>   -1054.150450</td></tr>
<tr><td>    4.3</td><td>   -1054.150416</td></tr>
<tr><td>    4.4</td><td>   -1054.150383</td></tr>
<tr><td>    4.5</td><td>   -1054.150353</td></tr>
<tr><td>    4.6</td><td>   -1054.150326</td></tr>
<tr><td>    4.7</td><td>   -1054.150301</td></tr>
<tr><td>    4.8</td><td>   -1054.150279</td></tr>
<tr><td>    4.9</td><td>   -1054.150260</td></tr>
<tr><td>    5.0</td><td>   -1054.150243</td></tr>
<tr><td>    5.1</td><td>   -1054.150228</td></tr>
<tr><td>    5.2</td><td>   -1054.150215</td></tr>
<tr><td>    5.3</td><td>   -1054.150204</td></tr>
<tr><td>    5.4</td><td>   -1054.150194</td></tr>
<tr><td>    5.5</td><td>   -1054.150185</td></tr>
<tr><td>    5.6</td><td>   -1054.150177</td></tr>
<tr><td>    5.7</td><td>   -1054.150170</td></tr>
<tr><td>    5.8</td><td>   -1054.150164</td></tr>
<tr><td>    5.9</td><td>   -1054.150158</td></tr>
<tr><td>    6.0</td><td>   -1054.150153</td></tr>
<tr><td>    6.1</td><td>   -1054.150149</td></tr>
<tr><td>    6.2</td><td>   -1054.150145</td></tr>
<tr><td>    6.3</td><td>   -1054.150142</td></tr>
<tr><td>    6.4</td><td>   -1054.150139</td></tr>
<tr><td>    6.5</td><td>   -1054.150136</td></tr>
<tr><td>    6.6</td><td>   -1054.150134</td></tr>
<tr><td>    6.7</td><td>   -1054.150131</td></tr>
<tr><td>    6.8</td><td>   -1054.150129</td></tr>
<tr><td>    6.9</td><td>   -1054.150128</td></tr>
<tr><td>    7.0</td><td>   -1054.150126</td></tr>
<tr><td>    7.1</td><td>   -1054.150125</td></tr>
<tr><td>    7.2</td><td>   -1054.150123</td></tr>
<tr><td>    7.3</td><td>   -1054.150122</td></tr>
<tr><td>    7.4</td><td>   -1054.150121</td></tr>
<tr><td>    7.5</td><td>   -1054.150120</td></tr>
<tr><td>    7.6</td><td>   -1054.150120</td></tr>
<tr><td>    7.7</td><td>   -1054.150119</td></tr>
<tr><td>    7.8</td><td>   -1054.150118</td></tr>
<tr><td>    7.9</td><td>   -1054.150117</td></tr>
<tr><td>    8.0</td><td>   -1054.150117</td></tr>
<tr><td>    8.1</td><td>   -1054.150116</td></tr>
<tr><td>    8.2</td><td>   -1054.150116</td></tr>
<tr><td>    8.3</td><td>   -1054.150116</td></tr>
<tr><td>    8.4</td><td>   -1054.150115</td></tr>
<tr><td>    8.5</td><td>   -1054.150115</td></tr>
<tr><td>    8.6</td><td>   -1054.150115</td></tr>
<tr><td>    8.7</td><td>   -1054.150114</td></tr>
<tr><td>    8.8</td><td>   -1054.150114</td></tr>
<tr><td>    8.9</td><td>   -1054.150114</td></tr>
<tr><td>    9.0</td><td>   -1054.150114</td></tr>
<tr><td>    9.1</td><td>   -1054.150113</td></tr>
<tr><td>    9.2</td><td>   -1054.150113</td></tr>
<tr><td>    9.3</td><td>   -1054.150113</td></tr>
<tr><td>    9.4</td><td>   -1054.150113</td></tr>
<tr><td>    9.5</td><td>   -1054.150113</td></tr>
<tr><td>    9.6</td><td>   -1054.150113</td></tr>
<tr><td>    9.7</td><td>   -1054.150112</td></tr>
<tr><td>    9.8</td><td>   -1054.150112</td></tr>
<tr><td>    9.9</td><td>   -1054.150112</td></tr>
<tr><td>   10.0</td><td>   -1054.150112</td></tr>
<tr><td>   10.1</td><td>   -1054.150112</td></tr>
<tr><td>   10.2</td><td>   -1054.150112</td></tr>
<tr><td>   10.3</td><td>   -1054.150112</td></tr>
<tr><td>   10.4</td><td>   -1054.150112</td></tr>
<tr><td>   10.5</td><td>   -1054.150112</td></tr>
<tr><td>   10.6</td><td>   -1054.150112</td></tr>
<tr><td>   10.7</td><td>   -1054.150112</td></tr>
<tr><td>   10.8</td><td>   -1054.150112</td></tr>
<tr><td>   10.9</td><td>   -1054.150112</td></tr>
<tr><td>   11.0</td><td>   -1054.150112</td></tr>
<tr><td>   11.1</td><td>   -1054.150111</td></tr>
<tr><td>   11.2</td><td>   -1054.150111</td></tr>
<tr><td>   11.3</td><td>   -1054.150111</td></tr>
<tr><td>   11.4</td><td>   -1054.150111</td></tr>
<tr><td>   11.5</td><td>   -1054.150111</td></tr>
<tr><td>   11.6</td><td>   -1054.150111</td></tr>
<tr><td>   11.7</td><td>   -1054.150111</td></tr>
<tr><td>   11.8</td><td>   -1054.150111</td></tr>
<tr><td>   11.9</td><td>   -1054.150111</td></tr>
<tr><td>   12.0</td><td>   -1054.150111</td></tr>
<tr><td>   12.1</td><td>   -1054.150111</td></tr>
<tr><td>   12.2</td><td>   -1054.150111</td></tr>
<tr><td>   12.3</td><td>   -1054.150111</td></tr>
<tr><td>   12.4</td><td>   -1054.150111</td></tr>
<tr><td>   12.5</td><td>   -1054.150111</td></tr>
</tbody></table>
<!--

        CCSD(T)         HF-SCF          CCSD(T)         HF-SCF          CCSD(T)         HF-SCF          CCSD(T)         HF-SCF  
  -1054.15011105  -1053.63360974  -1054.15011107  -1053.63360974  -1054.15011109  -1053.63360974  -1054.15011111  -1053.63360974
 **********************************************************************************************************************************
 Variable memory released
  --><stm:metadataList>
   <stm:metadata name="dc:date" content="2017-06-04T16:43:29+03:00"/>
   <stm:metadata name="dc:creator" content="student17"/>
   <stm:metadata name="dc:title" content="Ar-Ar"/>
   <stm:metadata name="cmlm:insilico" content="Molpro"/>
  </stm:metadataList><!--
  --><platform>
   <version major="2010" minor="1" integer_bits="64" parallelism="mpp">
    2010.1
    <date year="2017" month="6" day="4" hour="16" minute="34" second="18">
     2017-06-04T16:34:18
    </date>
   </version>
   <licence id="plat"/>
   <parallel processes="1" nodes="1" all_processes="1" openmp="1"/>
   <machine hostname="debserv" architecture="x86_64">
    Linux-3.2.0-4-amd64/debserv(x86_64) 64 bit mpp version
    <sysinfo name="cpu MHz" content="3400.000"/>
    <sysinfo name="MemTotal" content="66055752 kB"/>
    <sysinfo name="vendor_id" content="GenuineIntel"/>
    <sysinfo name="cpu family" content="6"/>
    <sysinfo name="model name" content="Intel(R) Core(TM) i7-4930K CPU @ 3.40GHz"/>
    <sysinfo name="flags"
      content="fpu vme de pse tsc msr pae mce cx8 apic sep mtrr pge mca cmov pat pse36 clflush dts acpi mmx fxsr sse sse2 ss ht tm pbe syscall nx pdpe1gb rdtscp lm constant_tsc arch_perfmon pebs bts rep_good nopl xtopology nonstop_tsc aperfmperf pni pclmulqdq dtes64 monitor ds_cpl vmx est tm2 ssse3 cx16 xtpr pdcm pcid dca sse4_1 sse4_2 x2apic popcnt tsc_deadline_timer aes xsave avx f16c rdrand lahf_lm arat epb xsaveopt pln pts dtherm tpr_shadow vnmi flexpriority ept vpid fsgsbase smep erms"/>
    <sysinfo name="MemTotal" content="66055752 kB"/>
    <sysinfo name="cache size" content="12288 KB"/>
    <sysinfo name="ncpu" content="6"/>
   </machine>
  </platform><!--
  -->
  <input>
   <p> ***,Ar-Ar </p>
   <p>                                                                                 ! basis = aug-cc-pvqz ! basis set </p>
   <p> basis = aug-cc-pvqz </p>
   <p> geometry = { </p>
   <p> ar; </p>
   <p> ar, ar, r} </p>
   <p> r_min = 3.30, angstrem </p>
   <p> r_max = 12.50, angstrem </p>
   <p> n = 93 </p>
   <p> do i=1, n </p>
   <p> r = r_min + (r_max - r_min)/(n-1) * (i-1) </p>
   <p> dist(i) = r </p>
   <p>                                                                                 ! hartree fock </p>
   <p> hf </p>
   <p> ccsd(t) </p>
   <p> e_complex = energy </p>
   <p> e(i) = e_complex </p>
   <p> enddo </p>
   <p> table dist, e </p>
   <p> save ar2.tab, new </p>
  </input>
  <!--
 --></job><!--
--></molpro>
