
 Primary working directories    : /mnt/SSD/student17
 Secondary working directories  : /mnt/SSD/student17
 Wavefunction directory         : /home/student17/wfu/
 Main file repository           : /mnt/SSD/student17/

 ARCHNAME  : Linux/x86_64
 FC        : /usr/bin/gfortran
 FCVERSION : 4.7.2
 BLASLIB   : -L/opt/intel/mkl/lib/intel64 -lmkl_intel_ilp64 -lmkl_sequential -lmkl_core
 id        : plat

 Nodes     nprocs
 debserv      1
 ga_uses_ma=false, calling ma_init with nominal heap.
 GA-space will be limited to   8.0 MW (determined by -G option)

 Using customized tuning parameters: mindgm=12; mindgv=24; mindgc=8; mindgr=1; noblas=0; mincuda=1000; minvec=7
 default implementation of scratch files=df  

 ***,Ar-Ar
 
                                                                                 ! basis = aug-cc-pvqz ! basis set
 basis = aug-cc-pvqz
 
 geometry = {ar; ar, ar, r}
 r_min = 3.30, angstrem
 r_max = 7.50, angstrem
 n = 43
 
 do i=1, n
 r = r_min + (r_max - r_min)/(n-1) * (i-1)
 dist(i) = r
 
                                                                                 ! hartree fock
 hf
 ccsd(t)
 e_complex = energy
 
 text, energy of Ar1
 dummy ar
 hf
 ccsd(t)
 e_ar1 = energy
 
 text, energy of Ar2
 dummy ar
 hf
 ccsd(t)
 e_ar2 = energy
 
 e(i) = e_complex - e_ar1 - e_ar2
 
 enddo
 
 table dist, e, dip_x, dip_y, dip_z
 save ar2.tab, new

 Variables initialized (661), CPU time= 0.00 sec
 Commands  initialized (460), CPU time= 0.01 sec, 486 directives.
 Default parameters read. Elapsed time= 0.04 sec

 Checking input...
 Passed
1


                                         ***  PROGRAM SYSTEM MOLPRO  ***
                         Copyright, University College Cardiff Consultants Limited, 2008

                                    Version 2010.1 linked 30 Ноя 2013 12:52


 **********************************************************************************************************************************
 LABEL *   Ar-Ar                                                                         
 Linux-3.2.0-4-amd64/debserv(x86_64) 64 bit mpp version                                  DATE: 03-Jun-17          TIME: 17:30:46  
 **********************************************************************************************************************************

 SHA1:             fd122acbd35ef3619fab5330ac0556b6c1fa4be2
 **********************************************************************************************************************************

 Variable memory set to    8000000 words,  buffer space   230000 words

 SETTING BASIS          =    AUG-CC-PVQZ
 SETTING R_MIN          =         3.30000000  ANGSTREM                        
 SETTING R_MAX          =         7.50000000  ANGSTREM                        
 SETTING N              =        43.00000000                                  

 DO I                   =         1.00000000   
 SETTING R              =         3.30000000  ANGSTREM                        
 SETTING DIST(1)        =         3.30000000  ANGSTREM                        


 Recomputing integrals since basis changed


 Using spherical harmonics

 Library entry AR     S aug-cc-pVQZ          selected for orbital group  1
 Library entry AR     P aug-cc-pVQZ          selected for orbital group  1
 Library entry AR     D aug-cc-pVQZ          selected for orbital group  1
 Library entry AR     F aug-cc-pVQZ          selected for orbital group  1
 Library entry AR     G aug-cc-pVQZ          selected for orbital group  1

1PROGRAM * SEWARD (Integral evaluation for generally contracted gaussian basis sets)     Author: Roland Lindh, 1990

 Geometry written to block  1 of record 700

 Orientation using atomic masses  
 Molecule type: Linear
 Symmetry elements: X,Y,Z
 Rotational constants:       2.3234015      2.3234015      0.0000000 GHz  (calculated with average atomic masses)

 Point group  D2h 



 ATOMIC COORDINATES

 NR  ATOM    CHARGE       X              Y              Z

   1  AR     18.00    0.000000000    0.000000000   -3.118048117
   2  AR     18.00    0.000000000    0.000000000    3.118048117

 NUCLEAR CHARGE:                   36
 NUMBER OF PRIMITIVE AOS:         274
 NUMBER OF SYMMETRY AOS:          224
 NUMBER OF CONTRACTIONS:          168   (  33Ag  +  20B3u +  20B2u +  11B1g +  33B1u +  20B2g +  20B3g +  11Au  )
 NUMBER OF CORE ORBITALS:          10   (   3Ag  +   1B3u +   1B2u +   0B1g +   3B1u +   1B2g +   1B3g +   0Au  )
 NUMBER OF VALENCE ORBITALS:        8   (   2Ag  +   1B3u +   1B2u +   0B1g +   2B1u +   1B2g +   1B3g +   0Au  )


 NUCLEAR REPULSION ENERGY   51.95558052

 EXTRA SYMMETRY OF AOS IN SYMMETRY 1:   1 1 1 1 1 1 1 1 1 1   1 1 1 1 2 1 2 1 2 1   2 1 2 1 2 1 2 1 3 2   1 3 2
 EXTRA SYMMETRY OF AOS IN SYMMETRY 2:   1 1 1 1 1 1 1 1 1 1   1 2 1 2 1 2 1 2 1 2
 EXTRA SYMMETRY OF AOS IN SYMMETRY 3:   1 1 1 1 1 1 1 1 1 1   1 2 1 2 1 2 1 2 1 2
 EXTRA SYMMETRY OF AOS IN SYMMETRY 4:   1 1 1 1 1 1 1 1 2 1   2
 EXTRA SYMMETRY OF AOS IN SYMMETRY 5:   1 1 1 1 1 1 1 1 1 1   1 1 1 1 2 1 2 1 2 1   2 1 2 1 2 1 2 1 3 2   1 3 2
 EXTRA SYMMETRY OF AOS IN SYMMETRY 6:   1 1 1 1 1 1 1 1 1 1   1 2 1 2 1 2 1 2 1 2
 EXTRA SYMMETRY OF AOS IN SYMMETRY 7:   1 1 1 1 1 1 1 1 1 1   1 2 1 2 1 2 1 2 1 2
 EXTRA SYMMETRY OF AOS IN SYMMETRY 8:   1 1 1 1 1 1 1 1 2 1   2

 Eigenvalues of metric

         1 0.201E-03 0.666E-03 0.107E-01 0.483E-01 0.566E-01 0.842E-01 0.944E-01 0.103E+00
         2 0.684E-03 0.548E-01 0.816E-01 0.987E-01 0.107E+00 0.289E+00 0.340E+00 0.355E+00
         3 0.684E-03 0.548E-01 0.816E-01 0.987E-01 0.107E+00 0.289E+00 0.340E+00 0.355E+00
         4 0.842E-01 0.103E+00 0.339E+00 0.344E+00 0.400E+00 0.711E+00 0.119E+01 0.166E+01
         5 0.194E-03 0.636E-03 0.430E-02 0.952E-02 0.366E-01 0.725E-01 0.787E-01 0.840E-01
         6 0.678E-03 0.455E-01 0.566E-01 0.825E-01 0.975E-01 0.193E+00 0.273E+00 0.327E+00
         7 0.678E-03 0.455E-01 0.566E-01 0.825E-01 0.975E-01 0.193E+00 0.273E+00 0.327E+00
         8 0.787E-01 0.926E-01 0.330E+00 0.339E+00 0.360E+00 0.686E+00 0.108E+01 0.165E+01


 Contracted 2-electron integrals neglected if value below      1.0D-11
 AO integral compression algorithm  1   Integral accuracy      1.0D-11

     79.954 MB (compressed) written to integral file ( 41.8%)

     Node minimum: 79.954 MB, node maximum: 79.954 MB


 NUMBER OF SORTED TWO-ELECTRON INTEGRALS:   13027854.     BUFFER LENGTH:  32768
 NUMBER OF SEGMENTS:   2  SEGMENT LENGTH:    6670587      RECORD LENGTH: 524288

 Memory used in sort:       7.23 MW

 SORT1 READ    23909504. AND WROTE     9953512. INTEGRALS IN     29 RECORDS. CPU TIME:     0.45 SEC, REAL TIME:     0.75 SEC
 SORT2 READ     9953512. AND WROTE    13027854. INTEGRALS IN    305 RECORDS. CPU TIME:     0.31 SEC, REAL TIME:     0.58 SEC

 FILE SIZES:   FILE 1:    47.9 MBYTE,  FILE 4:   121.7 MBYTE,   TOTAL:    169.5 MBYTE

 OPERATOR DM      FOR CENTER  0  COORDINATES:    0.000000    0.000000    0.000000


 **********************************************************************************************************************************
 DATASETS  * FILE   NREC   LENGTH (MB)   RECORD NAMES
              1      19       47.92       500      610      700      900      950      970     1000      129      960     1100   
                                          VAR    BASINP    GEOM    SYMINP    ZMAT    AOBASIS   BASIS     P2S    ABASIS      S 
                                         1400     1410     1200     1210     1080     1600     1650     1300     1700   
                                           T        V       H0       H01     AOSYM     SMH    MOLCAS    ERIS     OPER   

 PROGRAMS   *        TOTAL       INT
 CPU TIMES  *         3.84      3.79
 REAL TIME  *         5.78 SEC
 DISK USED  *       250.02 MB      
 GA USED    *         0.00 MB       (max)       0.00 MB       (current)
 **********************************************************************************************************************************

1PROGRAM * RHF-SCF (CLOSED SHELL)       Authors: W. Meyer, H.-J. Werner


 NUMBER OF ELECTRONS:      18+   18-
 CONVERGENCE THRESHOLDS:    1.00E-05 (Density)    1.00E-07 (Energy)
 MAX. NUMBER OF ITERATIONS:       60
 INTERPOLATION TYPE:            DIIS
 INTERPOLATION STEPS:              2 (START)      1 (STEP)
 LEVEL SHIFTS:                  0.00 (CLOSED)  0.00 (OPEN) 



 Orbital guess generated from atomic densities. Full valence occupancy:    5   2   2   0   5   2   2   0


 Molecular orbital dump at record        2100.2

 Initial alpha occupancy:   5   2   2   0   5   2   2   0
 Initial beta  occupancy:   5   2   2   0   5   2   2   0
 Wave function symmetry:    1

 ITERATION    DDIFF          GRAD             ENERGY        2-EL.EN.            DIPOLE MOMENTS         DIIS
    1      0.000D+00      0.000D+00     -1053.63136635    909.674048    0.00000    0.00000    0.00000    0
    2      0.000D+00      0.117D-03     -1053.63137941    909.642309    0.00000    0.00000    0.00000    1
    3      0.206D-03      0.302D-04     -1053.63138030    909.649392    0.00000    0.00000    0.00000    2
    4      0.664D-04      0.845D-05     -1053.63138036    909.646427    0.00000    0.00000    0.00000    3
    5      0.165D-04      0.184D-05     -1053.63138036    909.646290    0.00000    0.00000    0.00000    4
    6      0.480D-05      0.322D-06     -1053.63138036    909.646401    0.00000    0.00000    0.00000    0

 Final occupancy:   5   2   2   0   5   2   2   0

 !RHF STATE 1.1 Energy              -1053.631380363137
 Nuclear energy                        51.95558052
 One-electron energy                -1560.41016160
 Two-electron energy                  454.82320071
 Virial quotient                       -0.99998151
 !RHF STATE 1.1 Dipole moment           0.00000000     0.00000000     0.00000000
 Dipole moment /Debye                   0.00000000     0.00000000     0.00000000

 Orbital energies:

         1.1          2.1          3.1          4.1          5.1          6.1          7.1
   -118.609145   -12.321129    -9.570410    -1.279649    -0.608343     0.108644     0.138983

         1.2          2.2          3.2          4.2
     -9.570407    -0.593501     0.102130     0.290443

         1.3          2.3          3.3          4.3
     -9.570407    -0.593501     0.102130     0.290443

         1.4          2.4
      0.293450     0.769626

         1.5          2.5          3.5          4.5          5.5          6.5          7.5
   -118.609145   -12.321131    -9.570410    -1.274642    -0.573666     0.087021     0.232260

         1.6          2.6          3.6          4.6
     -9.570408    -0.587788     0.132609     0.417593

         1.7          2.7          3.7          4.7
     -9.570408    -0.587788     0.132609     0.417593

         1.8          2.8
      0.339226     0.790781


 **********************************************************************************************************************************
 DATASETS  * FILE   NREC   LENGTH (MB)   RECORD NAMES
              1      19       47.92       500      610      700      900      950      970     1000      129      960     1100   
                                          VAR    BASINP    GEOM    SYMINP    ZMAT    AOBASIS   BASIS     P2S    ABASIS      S 
                                         1400     1410     1200     1210     1080     1600     1650     1300     1700   
                                           T        V       H0       H01     AOSYM     SMH    MOLCAS    ERIS     OPER   

              2       3        0.38       700     1000     2100   
                                         GEOM     BASIS     RHF  

 PROGRAMS   *        TOTAL        HF       INT
 CPU TIMES  *         3.97      0.13      3.79
 REAL TIME  *         5.92 SEC
 DISK USED  *       250.02 MB      
 GA USED    *         0.00 MB       (max)       0.00 MB       (current)
 **********************************************************************************************************************************


1PROGRAM * CCSD (Closed-shell coupled cluster)     Authors: C. Hampel, H.-J. Werner, 1991, M. Deegan, P.J. Knowles, 1992


 Convergence thresholds:  THRVAR = 1.00D-08  THRDEN = 1.00D-06

 CCSD(T)     terms to be evaluated (factor= 1.000)


 Number of core orbitals:          10 (   3   1   1   0   3   1   1   0 )
 Number of closed-shell orbitals:   8 (   2   1   1   0   2   1   1   0 )
 Number of external orbitals:     150 (  28  18  18  11  28  18  18  11 )

 Molecular orbitals read from record     2100.2  Type=RHF/CANONICAL (state 1.1)

 Number of N-1 electron functions:               8
 Number of N-2 electron functions:              36
 Number of singly external CSFs:               184
 Number of doubly external CSFs:             92912
 Total number of CSFs:                       93097

 Length of J-op  integral file:               0.00 MB
 Length of K-op  integral file:               0.31 MB
 Length of 3-ext integral record:             0.00 MB

 Memory could be reduced to 5.15 Mwords without degradation in triples

 Integral transformation finished. Total CPU:   0.11 sec, npass=  1  Memory used:   1.71 MW

 Reference energy:                  -1053.63138036

 MP2 singlet pair energy:              -0.30059408
 MP2 triplet pair energy:              -0.16579433
 MP2 correlation energy:               -0.46638841
 MP2 total energy:                  -1054.09776877

 SCS-MP2 correlation energy:           -0.46387381   (PS=  1.200000  PT=  0.333333)
 SCS-MP2 total energy:              -1054.09525418

 ITER.      SQ.NORM     CORR.ENERGY   TOTAL ENERGY   ENERGY CHANGE        DEN1      VAR(S)    VAR(P)  DIIS     TIME
   1      1.14653738    -0.49946003 -1054.13084040    -0.03307162    -0.02503717  0.11D-03  0.14D-02  1  1     0.28
   2      1.15267247    -0.50065263 -1054.13203300    -0.00119260    -0.00850794  0.31D-05  0.46D-04  2  2     0.46
   3      1.15335513    -0.50059733 -1054.13197769     0.00005531    -0.00062066  0.20D-06  0.24D-05  3  3     0.63
   4      1.15348292    -0.50060981 -1054.13199017    -0.00001248    -0.00004641  0.22D-07  0.76D-07  4  4     0.80
   5      1.15349969    -0.50060995 -1054.13199032    -0.00000014    -0.00000791  0.15D-08  0.33D-08  5  5     0.98
   6      1.15350145    -0.50060936 -1054.13198972     0.00000060    -0.00000100  0.21D-09  0.20D-09  6  6     1.16

 Norm of t1 vector:      0.01262977      S-energy:    -0.00000002      T1 diagnostic:  0.00223265
                                                                       D1 diagnostic:  0.00370201


 Total CPU time for triples:      1.80 sec


 RESULTS
 =======

  Reference energy                  -1053.631380363138
  CCSD singlet pair energy             -0.339886694798
  CCSD triplet pair energy             -0.160722645068
  CCSD correlation energy              -0.500609355258

  Triples (T) contribution             -0.017806216875
  Total correlation energy             -0.518415572132

  CCSD total energy                 -1054.131989718395
  CCSD[T] energy                    -1054.149827806765
  CCSD-T energy                     -1054.149805836011
 !CCSD(T) total energy              -1054.149795935270

 Timing summary (sec):

 STEP                 CPU(USER)    SYS     CPU(TOT)    WALL
 Transformation          0.11      0.03      0.14      0.15
 CCSD iterations         1.05      0.04      1.09      1.09
 Triples                 1.80      0.05      1.85      1.93

 Program statistics:

 Available memory in ccsd:                 7999644
 Min. memory needed in ccsd:                301383
 Max. memory used in ccsd:                  379719
 Max. memory used in cckext:                367247 ( 6 integral passes)



 **********************************************************************************************************************************
 DATASETS  * FILE   NREC   LENGTH (MB)   RECORD NAMES
              1      20       63.86       500      610      700      900      950      970     1000      129      960     1100   
                                          VAR    BASINP    GEOM    SYMINP    ZMAT    AOBASIS   BASIS     P2S    ABASIS      S 
                                         1400     1410     1200     1210     1080     1600     1650     1300     1700     1380   
                                           T        V       H0       H01     AOSYM     SMH    MOLCAS    ERIS     OPER     JKOP   

              2       3        0.38       700     1000     2100   
                                         GEOM     BASIS     RHF  

 PROGRAMS   *        TOTAL   CCSD(T)        HF       INT
 CPU TIMES  *         6.94      2.97      0.13      3.79
 REAL TIME  *         9.11 SEC
 DISK USED  *       250.02 MB      
 GA USED    *         0.00 MB       (max)       0.00 MB       (current)
 **********************************************************************************************************************************
 SETTING E_COMPLEX      =     -1054.14979594  AU                              

 *** energy of Ar1

 Dummy atoms: AR

1PROGRAM * RHF-SCF (CLOSED SHELL)       Authors: W. Meyer, H.-J. Werner


 NUMBER OF ELECTRONS:      18+   18-
 CONVERGENCE THRESHOLDS:    1.00E-05 (Density)    1.00E-07 (Energy)
 MAX. NUMBER OF ITERATIONS:       60
 INTERPOLATION TYPE:            DIIS
 INTERPOLATION STEPS:              2 (START)      1 (STEP)
 LEVEL SHIFTS:                  0.00 (CLOSED)  0.00 (OPEN) 



 Molecular orbitals read from record     2100.2  Type=RHF/CANONICAL (state 1.1)

 Molecular orbital dump at record        2101.2

 ITERATION    DDIFF          GRAD             ENERGY        2-EL.EN.            DIPOLE MOMENTS         DIIS
    1      0.000D+00      0.000D+00     -1053.63138036    909.646401    0.00000    0.00000    0.00000    0
    2      0.000D+00      0.251D-05     -1053.63138036    909.646371    0.00000    0.00000    0.00000    0

 Final occupancy:   5   2   2   0   5   2   2   0

 !RHF STATE 1.1 Energy              -1053.631380363149
 Nuclear energy                        51.95558052
 One-electron energy                -1560.41014654
 Two-electron energy                  454.82318566
 Virial quotient                       -0.99998152
 !RHF STATE 1.1 Dipole moment           0.00000000     0.00000000     0.00000000
 Dipole moment /Debye                   0.00000000     0.00000000     0.00000000

 Orbital energies:

         1.1          2.1          3.1          4.1          5.1          6.1          7.1
   -118.609146   -12.321129    -9.570411    -1.279649    -0.608343     0.108644     0.138983

         1.2          2.2          3.2          4.2
     -9.570408    -0.593501     0.102130     0.290443

         1.3          2.3          3.3          4.3
     -9.570408    -0.593501     0.102130     0.290443

         1.4          2.4
      0.293450     0.769626

         1.5          2.5          3.5          4.5          5.5          6.5          7.5
   -118.609146   -12.321132    -9.570411    -1.274642    -0.573667     0.087021     0.232260

         1.6          2.6          3.6          4.6
     -9.570408    -0.587788     0.132609     0.417593

         1.7          2.7          3.7          4.7
     -9.570408    -0.587788     0.132609     0.417593

         1.8          2.8
      0.339226     0.790781


 **********************************************************************************************************************************
 DATASETS  * FILE   NREC   LENGTH (MB)   RECORD NAMES
              1      20       63.86       500      610      700      900      950      970     1000      129      960     1100   
                                          VAR    BASINP    GEOM    SYMINP    ZMAT    AOBASIS   BASIS     P2S    ABASIS      S 
                                         1400     1410     1200     1210     1080     1600     1650     1300     1700     1380   
                                           T        V       H0       H01     AOSYM     SMH    MOLCAS    ERIS     OPER     JKOP   

              2       4        0.58       700     1000     2100     2101   
                                         GEOM     BASIS     RHF      RHF  

 PROGRAMS   *        TOTAL        HF   CCSD(T)        HF       INT
 CPU TIMES  *         6.98      0.04      2.97      0.13      3.79
 REAL TIME  *         9.15 SEC
 DISK USED  *       250.02 MB      
 GA USED    *         0.00 MB       (max)       0.00 MB       (current)
 **********************************************************************************************************************************


1PROGRAM * CCSD (Closed-shell coupled cluster)     Authors: C. Hampel, H.-J. Werner, 1991, M. Deegan, P.J. Knowles, 1992


 Convergence thresholds:  THRVAR = 1.00D-08  THRDEN = 1.00D-06

 CCSD(T)     terms to be evaluated (factor= 1.000)


 Number of core orbitals:          10 (   3   1   1   0   3   1   1   0 )
 Number of closed-shell orbitals:   8 (   2   1   1   0   2   1   1   0 )
 Number of external orbitals:     150 (  28  18  18  11  28  18  18  11 )

 Molecular orbitals read from record     2101.2  Type=RHF/CANONICAL (state 1.1)

 Number of N-1 electron functions:               8
 Number of N-2 electron functions:              36
 Number of singly external CSFs:               184
 Number of doubly external CSFs:             92912
 Total number of CSFs:                       93097

 Length of J-op  integral file:               0.00 MB
 Length of K-op  integral file:               0.31 MB
 Length of 3-ext integral record:             0.00 MB

 Memory could be reduced to 5.15 Mwords without degradation in triples

 Integral transformation finished. Total CPU:   0.12 sec, npass=  1  Memory used:   1.71 MW

 Reference energy:                  -1053.63138036

 MP2 singlet pair energy:              -0.30059407
 MP2 triplet pair energy:              -0.16579432
 MP2 correlation energy:               -0.46638840
 MP2 total energy:                  -1054.09776876

 SCS-MP2 correlation energy:           -0.46387380   (PS=  1.200000  PT=  0.333333)
 SCS-MP2 total energy:              -1054.09525416

 ITER.      SQ.NORM     CORR.ENERGY   TOTAL ENERGY   ENERGY CHANGE        DEN1      VAR(S)    VAR(P)  DIIS     TIME
   1      1.14653739    -0.49946003 -1054.13084040    -0.03307164    -0.02503718  0.11D-03  0.14D-02  1  1     0.28
   2      1.15267247    -0.50065264 -1054.13203300    -0.00119260    -0.00850795  0.31D-05  0.46D-04  2  2     0.46
   3      1.15335514    -0.50059733 -1054.13197769     0.00005531    -0.00062066  0.20D-06  0.24D-05  3  3     0.64
   4      1.15348293    -0.50060981 -1054.13199018    -0.00001249    -0.00004641  0.22D-07  0.76D-07  4  4     0.81
   5      1.15349970    -0.50060995 -1054.13199032    -0.00000014    -0.00000791  0.15D-08  0.33D-08  5  5     0.98
   6      1.15350146    -0.50060936 -1054.13198972     0.00000060    -0.00000100  0.21D-09  0.20D-09  6  6     1.15

 Norm of t1 vector:      0.01263021      S-energy:    -0.00000003      T1 diagnostic:  0.00223273
                                                                       D1 diagnostic:  0.00370196

 Total CPU time for triples:      1.80 sec


 RESULTS
 =======

  Reference energy                  -1053.631380363149
  CCSD singlet pair energy             -0.339886688823
  CCSD triplet pair energy             -0.160722641721
  CCSD correlation energy              -0.500609357221

  Triples (T) contribution             -0.017806215545
  Total correlation energy             -0.518415572766

  CCSD total energy                 -1054.131989720370
  CCSD[T] energy                    -1054.149827808330
  CCSD-T energy                     -1054.149805837198
 !CCSD(T) total energy              -1054.149795935915

 Timing summary (sec):

 STEP                 CPU(USER)    SYS     CPU(TOT)    WALL
 Transformation          0.12      0.02      0.14      0.14
 CCSD iterations         1.03      0.05      1.08      1.62
 Triples                 1.80      0.05      1.85      2.06

 Program statistics:

 Available memory in ccsd:                 7999644
 Min. memory needed in ccsd:                301383
 Max. memory used in ccsd:                  379719
 Max. memory used in cckext:                367247 ( 6 integral passes)



 **********************************************************************************************************************************
 DATASETS  * FILE   NREC   LENGTH (MB)   RECORD NAMES
              1      20       63.86       500      610      700      900      950      970     1000      129      960     1100   
                                          VAR    BASINP    GEOM    SYMINP    ZMAT    AOBASIS   BASIS     P2S    ABASIS      S 
                                         1400     1410     1200     1210     1080     1600     1650     1300     1700     1380   
                                           T        V       H0       H01     AOSYM     SMH    MOLCAS    ERIS     OPER     JKOP   

              2       4        0.58       700     1000     2100     2101   
                                         GEOM     BASIS     RHF      RHF  

 PROGRAMS   *        TOTAL   CCSD(T)        HF   CCSD(T)        HF       INT
 CPU TIMES  *         9.95      2.96      0.04      2.97      0.13      3.79
 REAL TIME  *        13.01 SEC
 DISK USED  *       250.02 MB      
 GA USED    *         0.00 MB       (max)       0.00 MB       (current)
 **********************************************************************************************************************************
 SETTING E_AR1          =     -1054.14979594  AU                              

 *** energy of Ar2

 Dummy atoms: AR

1PROGRAM * RHF-SCF (CLOSED SHELL)       Authors: W. Meyer, H.-J. Werner


 NUMBER OF ELECTRONS:      18+   18-
 CONVERGENCE THRESHOLDS:    1.00E-05 (Density)    1.00E-07 (Energy)
 MAX. NUMBER OF ITERATIONS:       60
 INTERPOLATION TYPE:            DIIS
 INTERPOLATION STEPS:              2 (START)      1 (STEP)
 LEVEL SHIFTS:                  0.00 (CLOSED)  0.00 (OPEN) 



 Molecular orbitals read from record     2101.2  Type=RHF/CANONICAL (state 1.1)

 Molecular orbital dump at record        2102.2

 ITERATION    DDIFF          GRAD             ENERGY        2-EL.EN.            DIPOLE MOMENTS         DIIS
    1      0.000D+00      0.000D+00     -1053.63138036    909.646371    0.00000    0.00000    0.00000    0
    2      0.000D+00      0.101D-05     -1053.63138036    909.646380    0.00000    0.00000    0.00000    0

 Final occupancy:   5   2   2   0   5   2   2   0

 !RHF STATE 1.1 Energy              -1053.631380363151
 Nuclear energy                        51.95558052
 One-electron energy                -1560.41015100
 Two-electron energy                  454.82319011
 Virial quotient                       -0.99998152
 !RHF STATE 1.1 Dipole moment           0.00000000     0.00000000     0.00000000
 Dipole moment /Debye                   0.00000000     0.00000000     0.00000000

 Orbital energies:

         1.1          2.1          3.1          4.1          5.1          6.1          7.1
   -118.609145   -12.321129    -9.570410    -1.279649    -0.608343     0.108644     0.138983

         1.2          2.2          3.2          4.2
     -9.570408    -0.593501     0.102130     0.290443

         1.3          2.3          3.3          4.3
     -9.570408    -0.593501     0.102130     0.290443

         1.4          2.4
      0.293450     0.769626

         1.5          2.5          3.5          4.5          5.5          6.5          7.5
   -118.609145   -12.321132    -9.570411    -1.274642    -0.573666     0.087021     0.232260

         1.6          2.6          3.6          4.6
     -9.570408    -0.587788     0.132609     0.417593

         1.7          2.7          3.7          4.7
     -9.570408    -0.587788     0.132609     0.417593

         1.8          2.8
      0.339226     0.790781


 **********************************************************************************************************************************
 DATASETS  * FILE   NREC   LENGTH (MB)   RECORD NAMES
              1      20       63.86       500      610      700      900      950      970     1000      129      960     1100   
                                          VAR    BASINP    GEOM    SYMINP    ZMAT    AOBASIS   BASIS     P2S    ABASIS      S 
                                         1400     1410     1200     1210     1080     1600     1650     1300     1700     1380   
                                           T        V       H0       H01     AOSYM     SMH    MOLCAS    ERIS     OPER     JKOP   

              2       5        0.79       700     1000     2100     2101     2102   
                                         GEOM     BASIS     RHF      RHF      RHF  

 PROGRAMS   *        TOTAL        HF   CCSD(T)        HF   CCSD(T)        HF       INT
 CPU TIMES  *         9.98      0.02      2.96      0.04      2.97      0.13      3.79
 REAL TIME  *        13.08 SEC
 DISK USED  *       250.02 MB      
 GA USED    *         0.00 MB       (max)       0.00 MB       (current)
 **********************************************************************************************************************************


1PROGRAM * CCSD (Closed-shell coupled cluster)     Authors: C. Hampel, H.-J. Werner, 1991, M. Deegan, P.J. Knowles, 1992


 Convergence thresholds:  THRVAR = 1.00D-08  THRDEN = 1.00D-06

 CCSD(T)     terms to be evaluated (factor= 1.000)


 Number of core orbitals:          10 (   3   1   1   0   3   1   1   0 )
 Number of closed-shell orbitals:   8 (   2   1   1   0   2   1   1   0 )
 Number of external orbitals:     150 (  28  18  18  11  28  18  18  11 )

 Molecular orbitals read from record     2102.2  Type=RHF/CANONICAL (state 1.1)

 Number of N-1 electron functions:               8
 Number of N-2 electron functions:              36
 Number of singly external CSFs:               184
 Number of doubly external CSFs:             92912
 Total number of CSFs:                       93097

 Length of J-op  integral file:               0.00 MB
 Length of K-op  integral file:               0.31 MB
 Length of 3-ext integral record:             0.00 MB

 Memory could be reduced to 5.15 Mwords without degradation in triples

 Integral transformation finished. Total CPU:   0.12 sec, npass=  1  Memory used:   1.71 MW

 Reference energy:                  -1053.63138036

 MP2 singlet pair energy:              -0.30059408
 MP2 triplet pair energy:              -0.16579432
 MP2 correlation energy:               -0.46638840
 MP2 total energy:                  -1054.09776876

 SCS-MP2 correlation energy:           -0.46387380   (PS=  1.200000  PT=  0.333333)
 SCS-MP2 total energy:              -1054.09525417

 ITER.      SQ.NORM     CORR.ENERGY   TOTAL ENERGY   ENERGY CHANGE        DEN1      VAR(S)    VAR(P)  DIIS     TIME
   1      1.14653739    -0.49946003 -1054.13084040    -0.03307163    -0.02503718  0.11D-03  0.14D-02  1  1     0.29
   2      1.15267247    -0.50065263 -1054.13203300    -0.00119260    -0.00850794  0.31D-05  0.46D-04  2  2     0.46
   3      1.15335514    -0.50059733 -1054.13197769     0.00005531    -0.00062066  0.20D-06  0.24D-05  3  3     0.64
   4      1.15348293    -0.50060981 -1054.13199018    -0.00001248    -0.00004641  0.22D-07  0.76D-07  4  4     0.82
   5      1.15349970    -0.50060995 -1054.13199032    -0.00000014    -0.00000791  0.15D-08  0.33D-08  5  5     0.98
   6      1.15350146    -0.50060936 -1054.13198972     0.00000060    -0.00000100  0.21D-09  0.20D-09  6  6     1.16

 Norm of t1 vector:      0.01263015      S-energy:    -0.00000002      T1 diagnostic:  0.00223272
                                                                       D1 diagnostic:  0.00370190

 Total CPU time for triples:      1.82 sec


 RESULTS
 =======

  Reference energy                  -1053.631380363151
  CCSD singlet pair energy             -0.339886690347
  CCSD triplet pair energy             -0.160722642580
  CCSD correlation energy              -0.500609356692

  Triples (T) contribution             -0.017806215873
  Total correlation energy             -0.518415572565

  CCSD total energy                 -1054.131989719843
  CCSD[T] energy                    -1054.149827807923
  CCSD-T energy                     -1054.149805836851
 !CCSD(T) total energy              -1054.149795935716

 Timing summary (sec):

 STEP                 CPU(USER)    SYS     CPU(TOT)    WALL
 Transformation          0.12      0.01      0.13      0.14
 CCSD iterations         1.04      0.05      1.09      1.14
 Triples                 1.82      0.04      1.86      2.20

 Program statistics:

 Available memory in ccsd:                 7999644
 Min. memory needed in ccsd:                301383
 Max. memory used in ccsd:                  379719
 Max. memory used in cckext:                367247 ( 6 integral passes)



 **********************************************************************************************************************************
 DATASETS  * FILE   NREC   LENGTH (MB)   RECORD NAMES
              1      20       63.86       500      610      700      900      950      970     1000      129      960     1100   
                                          VAR    BASINP    GEOM    SYMINP    ZMAT    AOBASIS   BASIS     P2S    ABASIS      S 
                                         1400     1410     1200     1210     1080     1600     1650     1300     1700     1380   
                                           T        V       H0       H01     AOSYM     SMH    MOLCAS    ERIS     OPER     JKOP   

              2       5        0.79       700     1000     2100     2101     2102   
                                         GEOM     BASIS     RHF      RHF      RHF  

 PROGRAMS   *        TOTAL   CCSD(T)        HF   CCSD(T)        HF   CCSD(T)        HF       INT
 CPU TIMES  *        12.98      3.00      0.02      2.96      0.04      2.97      0.13      3.79
 REAL TIME  *        16.57 SEC
 DISK USED  *       250.02 MB      
 GA USED    *         0.00 MB       (max)       0.00 MB       (current)
 **********************************************************************************************************************************
 SETTING E_AR2          =     -1054.14979594  AU                              
 SETTING E(1)           =      1054.14979594  AU                              

 DO I                   =         2.00000000   
 SETTING R              =         3.40000000  ANGSTREM                        
 SETTING DIST(2)        =         3.40000000  ANGSTREM                        


 Using spherical harmonics

 Library entry AR     S aug-cc-pVQZ          selected for orbital group  1
 Library entry AR     P aug-cc-pVQZ          selected for orbital group  1
 Library entry AR     D aug-cc-pVQZ          selected for orbital group  1
 Library entry AR     F aug-cc-pVQZ          selected for orbital group  1
 Library entry AR     G aug-cc-pVQZ          selected for orbital group  1

1PROGRAM * SEWARD (Integral evaluation for generally contracted gaussian basis sets)     Author: Roland Lindh, 1990

 Geometry written to block  1 of record 700

 Orientation using atomic masses  
 Molecule type: Linear
 Symmetry elements: X,Y,Z
 Rotational constants:       2.1887407      2.1887407      0.0000000 GHz  (calculated with average atomic masses)

 Point group  D2h 



 ATOMIC COORDINATES

 NR  ATOM    CHARGE       X              Y              Z

   1  AR     18.00    0.000000000    0.000000000   -3.212534423
   2  AR     18.00    0.000000000    0.000000000    3.212534423

 NUCLEAR CHARGE:                   36
 NUMBER OF PRIMITIVE AOS:         274
 NUMBER OF SYMMETRY AOS:          224
 NUMBER OF CONTRACTIONS:          168   (  33Ag  +  20B3u +  20B2u +  11B1g +  33B1u +  20B2g +  20B3g +  11Au  )
 NUMBER OF CORE ORBITALS:          10   (   3Ag  +   1B3u +   1B2u +   0B1g +   3B1u +   1B2g +   1B3g +   0Au  )
 NUMBER OF VALENCE ORBITALS:        8   (   2Ag  +   1B3u +   1B2u +   0B1g +   2B1u +   1B2g +   1B3g +   0Au  )


 NUCLEAR REPULSION ENERGY   50.42747521

 EXTRA SYMMETRY OF AOS IN SYMMETRY 1:   1 1 1 1 1 1 1 1 1 1   1 1 1 1 2 1 2 1 2 1   2 1 2 1 2 1 2 1 3 2   1 3 2
 EXTRA SYMMETRY OF AOS IN SYMMETRY 2:   1 1 1 1 1 1 1 1 1 1   1 2 1 2 1 2 1 2 1 2
 EXTRA SYMMETRY OF AOS IN SYMMETRY 3:   1 1 1 1 1 1 1 1 1 1   1 2 1 2 1 2 1 2 1 2
 EXTRA SYMMETRY OF AOS IN SYMMETRY 4:   1 1 1 1 1 1 1 1 2 1   2
 EXTRA SYMMETRY OF AOS IN SYMMETRY 5:   1 1 1 1 1 1 1 1 1 1   1 1 1 1 2 1 2 1 2 1   2 1 2 1 2 1 2 1 3 2   1 3 2
 EXTRA SYMMETRY OF AOS IN SYMMETRY 6:   1 1 1 1 1 1 1 1 1 1   1 2 1 2 1 2 1 2 1 2
 EXTRA SYMMETRY OF AOS IN SYMMETRY 7:   1 1 1 1 1 1 1 1 1 1   1 2 1 2 1 2 1 2 1 2
 EXTRA SYMMETRY OF AOS IN SYMMETRY 8:   1 1 1 1 1 1 1 1 2 1   2

 Eigenvalues of metric

         1 0.201E-03 0.670E-03 0.108E-01 0.482E-01 0.609E-01 0.841E-01 0.942E-01 0.102E+00
         2 0.685E-03 0.547E-01 0.821E-01 0.986E-01 0.107E+00 0.288E+00 0.340E+00 0.351E+00
         3 0.685E-03 0.547E-01 0.821E-01 0.986E-01 0.107E+00 0.288E+00 0.340E+00 0.351E+00
         4 0.841E-01 0.102E+00 0.339E+00 0.343E+00 0.399E+00 0.708E+00 0.118E+01 0.166E+01
         5 0.195E-03 0.637E-03 0.485E-02 0.112E-01 0.372E-01 0.761E-01 0.791E-01 0.846E-01
         6 0.679E-03 0.467E-01 0.586E-01 0.851E-01 0.976E-01 0.198E+00 0.282E+00 0.332E+00
         7 0.679E-03 0.467E-01 0.586E-01 0.851E-01 0.976E-01 0.198E+00 0.282E+00 0.332E+00
         8 0.791E-01 0.938E-01 0.333E+00 0.339E+00 0.362E+00 0.689E+00 0.109E+01 0.166E+01


 Contracted 2-electron integrals neglected if value below      1.0D-11
 AO integral compression algorithm  1   Integral accuracy      1.0D-11

     79.692 MB (compressed) written to integral file ( 41.7%)

     Node minimum: 79.692 MB, node maximum: 79.692 MB


 NUMBER OF SORTED TWO-ELECTRON INTEGRALS:   13027854.     BUFFER LENGTH:  32768
 NUMBER OF SEGMENTS:   2  SEGMENT LENGTH:    6670587      RECORD LENGTH: 524288

 Memory used in sort:       7.23 MW

 SORT1 READ    23909504. AND WROTE     9953130. INTEGRALS IN     29 RECORDS. CPU TIME:     0.45 SEC, REAL TIME:     0.54 SEC
 SORT2 READ     9953130. AND WROTE    13027854. INTEGRALS IN    304 RECORDS. CPU TIME:     0.31 SEC, REAL TIME:     0.53 SEC

 FILE SIZES:   FILE 1:    47.8 MBYTE,  FILE 4:   121.7 MBYTE,   TOTAL:    169.5 MBYTE

 OPERATOR DM      FOR CENTER  0  COORDINATES:    0.000000    0.000000    0.000000


 **********************************************************************************************************************************
 DATASETS  * FILE   NREC   LENGTH (MB)   RECORD NAMES
              1      19       47.83       500      610      700      900      950      970     1000      129      960     1100   
                                          VAR    BASINP    GEOM    SYMINP    ZMAT    AOBASIS   BASIS     P2S    ABASIS      S 
                                         1400     1410     1200     1210     1080     1600     1650     1300     1700   
                                           T        V       H0       H01     AOSYM     SMH    MOLCAS    ERIS     OPER   

              2       5        0.79       700     1000     2100     2101     2102   
                                         GEOM     BASIS     RHF      RHF      RHF  

 PROGRAMS   *        TOTAL       INT   CCSD(T)        HF   CCSD(T)        HF   CCSD(T)        HF       INT
 CPU TIMES  *        16.79      3.81      3.00      0.02      2.96      0.04      2.97      0.13      3.79
 REAL TIME  *        20.84 SEC
 DISK USED  *       250.46 MB      
 GA USED    *         0.00 MB       (max)       0.00 MB       (current)
 **********************************************************************************************************************************

1PROGRAM * RHF-SCF (CLOSED SHELL)       Authors: W. Meyer, H.-J. Werner


 NUMBER OF ELECTRONS:      18+   18-
 CONVERGENCE THRESHOLDS:    1.00E-05 (Density)    1.00E-07 (Energy)
 MAX. NUMBER OF ITERATIONS:       60
 INTERPOLATION TYPE:            DIIS
 INTERPOLATION STEPS:              2 (START)      1 (STEP)
 LEVEL SHIFTS:                  0.00 (CLOSED)  0.00 (OPEN) 



 Molecular orbitals read from record     2100.2  Type=RHF/CANONICAL (state 1.1)

 Molecular orbital dump at record        2100.2

 ITERATION    DDIFF          GRAD             ENERGY        2-EL.EN.            DIPOLE MOMENTS         DIIS
    1      0.000D+00      0.000D+00     -1053.63204582    906.562729    0.00000    0.00000    0.00000    0
    2      0.000D+00      0.109D-03     -1053.63205459    906.582555    0.00000    0.00000    0.00000    1
    3      0.204D-03      0.163D-04     -1053.63205482    906.576099    0.00000    0.00000    0.00000    2
    4      0.377D-04      0.372D-05     -1053.63205483    906.578014    0.00000    0.00000    0.00000    3
    5      0.787D-05      0.707D-06     -1053.63205483    906.577905    0.00000    0.00000    0.00000    0

 Final occupancy:   5   2   2   0   5   2   2   0

 !RHF STATE 1.1 Energy              -1053.632054830815
 Nuclear energy                        50.42747521
 One-electron energy                -1557.34848231
 Two-electron energy                  453.28895226
 Virial quotient                       -0.99998863
 !RHF STATE 1.1 Dipole moment           0.00000000     0.00000000     0.00000000
 Dipole moment /Debye                   0.00000000     0.00000000     0.00000000

 Orbital energies:

         1.1          2.1          3.1          4.1          5.1          6.1          7.1
   -118.609477   -12.321408    -9.570691    -1.279122    -0.605528     0.108697     0.137735

         1.2          2.2          3.2          4.2
     -9.570691    -0.593039     0.101756     0.288914

         1.3          2.3          3.3          4.3
     -9.570691    -0.593039     0.101756     0.288914

         1.4          2.4
      0.294839     0.769205

         1.5          2.5          3.5          4.5          5.5          6.5          7.5
   -118.609477   -12.321410    -9.570692    -1.275258    -0.576532     0.087882     0.229509

         1.6          2.6          3.6          4.6
     -9.570691    -0.588426     0.132233     0.412639

         1.7          2.7          3.7          4.7
     -9.570691    -0.588426     0.132233     0.412639

         1.8          2.8
      0.337022     0.790323


 **********************************************************************************************************************************
 DATASETS  * FILE   NREC   LENGTH (MB)   RECORD NAMES
              1      19       47.83       500      610      700      900      950      970     1000      129      960     1100   
                                          VAR    BASINP    GEOM    SYMINP    ZMAT    AOBASIS   BASIS     P2S    ABASIS      S 
                                         1400     1410     1200     1210     1080     1600     1650     1300     1700   
                                           T        V       H0       H01     AOSYM     SMH    MOLCAS    ERIS     OPER   

              2       5        0.79       700     1000     2100     2101     2102   
                                         GEOM     BASIS     RHF      RHF      RHF  

 PROGRAMS   *        TOTAL        HF       INT   CCSD(T)        HF   CCSD(T)        HF   CCSD(T)        HF       INT
 CPU TIMES  *        16.88      0.09      3.81      3.00      0.02      2.96      0.04      2.97      0.13      3.79
 REAL TIME  *        20.94 SEC
 DISK USED  *       250.46 MB      
 GA USED    *         0.00 MB       (max)       0.00 MB       (current)
 **********************************************************************************************************************************


1PROGRAM * CCSD (Closed-shell coupled cluster)     Authors: C. Hampel, H.-J. Werner, 1991, M. Deegan, P.J. Knowles, 1992


 Convergence thresholds:  THRVAR = 1.00D-08  THRDEN = 1.00D-06

 CCSD(T)     terms to be evaluated (factor= 1.000)


 Number of core orbitals:          10 (   3   1   1   0   3   1   1   0 )
 Number of closed-shell orbitals:   8 (   2   1   1   0   2   1   1   0 )
 Number of external orbitals:     150 (  28  18  18  11  28  18  18  11 )

 Molecular orbitals read from record     2100.2  Type=RHF/CANONICAL (state 1.1)

 Number of N-1 electron functions:               8
 Number of N-2 electron functions:              36
 Number of singly external CSFs:               184
 Number of doubly external CSFs:             92912
 Total number of CSFs:                       93097

 Length of J-op  integral file:               0.00 MB
 Length of K-op  integral file:               0.31 MB
 Length of 3-ext integral record:             0.00 MB

 Memory could be reduced to 5.15 Mwords without degradation in triples

 Integral transformation finished. Total CPU:   0.10 sec, npass=  1  Memory used:   1.71 MW

 Reference energy:                  -1053.63205483

 MP2 singlet pair energy:              -0.30048972
 MP2 triplet pair energy:              -0.16554959
 MP2 correlation energy:               -0.46603931
 MP2 total energy:                  -1054.09809414

 SCS-MP2 correlation energy:           -0.46359630   (PS=  1.200000  PT=  0.333333)
 SCS-MP2 total energy:              -1054.09565113

 ITER.      SQ.NORM     CORR.ENERGY   TOTAL ENERGY   ENERGY CHANGE        DEN1      VAR(S)    VAR(P)  DIIS     TIME
   1      1.14648858    -0.49918102 -1054.13123585    -0.03314171    -0.02510406  0.11D-03  0.14D-02  1  1     0.26
   2      1.15262604    -0.50037358 -1054.13242841    -0.00119256    -0.00851371  0.30D-05  0.46D-04  2  2     0.43
   3      1.15330701    -0.50031883 -1054.13237366     0.00005475    -0.00061910  0.19D-06  0.24D-05  3  3     0.60
   4      1.15343404    -0.50033145 -1054.13238629    -0.00001263    -0.00004599  0.22D-07  0.75D-07  4  4     0.77
   5      1.15345075    -0.50033155 -1054.13238638    -0.00000009    -0.00000799  0.15D-08  0.32D-08  5  5     0.94
   6      1.15345243    -0.50033096 -1054.13238579     0.00000059    -0.00000095  0.21D-09  0.19D-09  6  6     1.11

 Norm of t1 vector:      0.01257385      S-energy:    -0.00000005      T1 diagnostic:  0.00222276
                                                                       D1 diagnostic:  0.00364530

 Total CPU time for triples:      1.80 sec


 RESULTS
 =======

  Reference energy                  -1053.632054830814
  CCSD singlet pair energy             -0.339816960932
  CCSD triplet pair energy             -0.160513953256
  CCSD correlation energy              -0.500330960677

  Triples (T) contribution             -0.017766887236
  Total correlation energy             -0.518097847913

  CCSD total energy                 -1054.132385791491
  CCSD[T] energy                    -1054.150184699758
  CCSD-T energy                     -1054.150162696918
 !CCSD(T) total energy              -1054.150152678727

 Timing summary (sec):

 STEP                 CPU(USER)    SYS     CPU(TOT)    WALL
 Transformation          0.11      0.03      0.14      0.14
 CCSD iterations         1.00      0.08      1.08      1.09
 Triples                 1.80      0.06      1.86      2.97

 Program statistics:

 Available memory in ccsd:                 7999644
 Min. memory needed in ccsd:                301383
 Max. memory used in ccsd:                  379719
 Max. memory used in cckext:                367247 ( 6 integral passes)



 **********************************************************************************************************************************
 DATASETS  * FILE   NREC   LENGTH (MB)   RECORD NAMES
              1      20       63.77       500      610      700      900      950      970     1000      129      960     1100   
                                          VAR    BASINP    GEOM    SYMINP    ZMAT    AOBASIS   BASIS     P2S    ABASIS      S 
                                         1400     1410     1200     1210     1080     1600     1650     1300     1700     1380   
                                           T        V       H0       H01     AOSYM     SMH    MOLCAS    ERIS     OPER     JKOP   

              2       5        0.79       700     1000     2100     2101     2102   
                                         GEOM     BASIS     RHF      RHF      RHF  

 PROGRAMS   *        TOTAL   CCSD(T)        HF       INT   CCSD(T)        HF   CCSD(T)        HF   CCSD(T)        HF       INT
 CPU TIMES  *        19.82      2.94      0.09      3.81      3.00      0.02      2.96      0.04      2.97      0.13      3.79
 REAL TIME  *        25.16 SEC
 DISK USED  *       250.46 MB      
 GA USED    *         0.00 MB       (max)       0.00 MB       (current)
 **********************************************************************************************************************************
 SETTING E_COMPLEX      =     -1054.15015268  AU                              

 *** energy of Ar1

 Dummy atoms: AR

1PROGRAM * RHF-SCF (CLOSED SHELL)       Authors: W. Meyer, H.-J. Werner


 NUMBER OF ELECTRONS:      18+   18-
 CONVERGENCE THRESHOLDS:    1.00E-05 (Density)    1.00E-07 (Energy)
 MAX. NUMBER OF ITERATIONS:       60
 INTERPOLATION TYPE:            DIIS
 INTERPOLATION STEPS:              2 (START)      1 (STEP)
 LEVEL SHIFTS:                  0.00 (CLOSED)  0.00 (OPEN) 



 Molecular orbitals read from record     2101.2  Type=RHF/CANONICAL (state 1.1)

 Molecular orbital dump at record        2101.2

 ITERATION    DDIFF          GRAD             ENERGY        2-EL.EN.            DIPOLE MOMENTS         DIIS
    1      0.000D+00      0.000D+00     -1053.63204582    906.562700    0.00000    0.00000    0.00000    0
    2      0.000D+00      0.109D-03     -1053.63205459    906.582564    0.00000    0.00000    0.00000    1
    3      0.204D-03      0.164D-04     -1053.63205482    906.576095    0.00000    0.00000    0.00000    2
    4      0.378D-04      0.373D-05     -1053.63205483    906.578014    0.00000    0.00000    0.00000    3
    5      0.788D-05      0.711D-06     -1053.63205483    906.577904    0.00000    0.00000    0.00000    0

 Final occupancy:   5   2   2   0   5   2   2   0

 !RHF STATE 1.1 Energy              -1053.632054830812
 Nuclear energy                        50.42747521
 One-electron energy                -1557.34848226
 Two-electron energy                  453.28895222
 Virial quotient                       -0.99998863
 !RHF STATE 1.1 Dipole moment           0.00000000     0.00000000     0.00000000
 Dipole moment /Debye                   0.00000000     0.00000000     0.00000000

 Orbital energies:

         1.1          2.1          3.1          4.1          5.1          6.1          7.1
   -118.609477   -12.321408    -9.570691    -1.279122    -0.605528     0.108697     0.137735

         1.2          2.2          3.2          4.2
     -9.570691    -0.593039     0.101756     0.288914

         1.3          2.3          3.3          4.3
     -9.570691    -0.593039     0.101756     0.288914

         1.4          2.4
      0.294839     0.769205

         1.5          2.5          3.5          4.5          5.5          6.5          7.5
   -118.609477   -12.321410    -9.570692    -1.275258    -0.576532     0.087882     0.229509

         1.6          2.6          3.6          4.6
     -9.570691    -0.588426     0.132233     0.412639

         1.7          2.7          3.7          4.7
     -9.570691    -0.588426     0.132233     0.412639

         1.8          2.8
      0.337022     0.790323


 **********************************************************************************************************************************
 DATASETS  * FILE   NREC   LENGTH (MB)   RECORD NAMES
              1      20       63.77       500      610      700      900      950      970     1000      129      960     1100   
                                          VAR    BASINP    GEOM    SYMINP    ZMAT    AOBASIS   BASIS     P2S    ABASIS      S 
                                         1400     1410     1200     1210     1080     1600     1650     1300     1700     1380   
                                           T        V       H0       H01     AOSYM     SMH    MOLCAS    ERIS     OPER     JKOP   

              2       5        0.79       700     1000     2100     2101     2102   
                                         GEOM     BASIS     RHF      RHF      RHF  

 PROGRAMS   *        TOTAL        HF   CCSD(T)        HF       INT   CCSD(T)        HF   CCSD(T)        HF   CCSD(T)        HF
 CPU TIMES  *        19.91      0.09      2.94      0.09      3.81      3.00      0.02      2.96      0.04      2.97      0.13
 REAL TIME  *        25.27 SEC
 DISK USED  *       250.46 MB      
 GA USED    *         0.00 MB       (max)       0.00 MB       (current)
 **********************************************************************************************************************************


1PROGRAM * CCSD (Closed-shell coupled cluster)     Authors: C. Hampel, H.-J. Werner, 1991, M. Deegan, P.J. Knowles, 1992


 Convergence thresholds:  THRVAR = 1.00D-08  THRDEN = 1.00D-06

 CCSD(T)     terms to be evaluated (factor= 1.000)


 Number of core orbitals:          10 (   3   1   1   0   3   1   1   0 )
 Number of closed-shell orbitals:   8 (   2   1   1   0   2   1   1   0 )
 Number of external orbitals:     150 (  28  18  18  11  28  18  18  11 )

 Molecular orbitals read from record     2101.2  Type=RHF/CANONICAL (state 1.1)

 Number of N-1 electron functions:               8
 Number of N-2 electron functions:              36
 Number of singly external CSFs:               184
 Number of doubly external CSFs:             92912
 Total number of CSFs:                       93097

 Length of J-op  integral file:               0.00 MB
 Length of K-op  integral file:               0.31 MB
 Length of 3-ext integral record:             0.00 MB

 Memory could be reduced to 5.15 Mwords without degradation in triples

 Integral transformation finished. Total CPU:   0.11 sec, npass=  1  Memory used:   1.71 MW

 Reference energy:                  -1053.63205483

 MP2 singlet pair energy:              -0.30048972
 MP2 triplet pair energy:              -0.16554959
 MP2 correlation energy:               -0.46603931
 MP2 total energy:                  -1054.09809414

 SCS-MP2 correlation energy:           -0.46359630   (PS=  1.200000  PT=  0.333333)
 SCS-MP2 total energy:              -1054.09565113

 ITER.      SQ.NORM     CORR.ENERGY   TOTAL ENERGY   ENERGY CHANGE        DEN1      VAR(S)    VAR(P)  DIIS     TIME
   1      1.14648858    -0.49918102 -1054.13123585    -0.03314171    -0.02510406  0.11D-03  0.14D-02  1  1     0.28
   2      1.15262604    -0.50037358 -1054.13242841    -0.00119256    -0.00851371  0.30D-05  0.46D-04  2  2     0.46
   3      1.15330701    -0.50031883 -1054.13237366     0.00005475    -0.00061910  0.19D-06  0.24D-05  3  3     0.63
   4      1.15343404    -0.50033145 -1054.13238629    -0.00001263    -0.00004599  0.22D-07  0.75D-07  4  4     0.81
   5      1.15345075    -0.50033155 -1054.13238638    -0.00000009    -0.00000799  0.15D-08  0.32D-08  5  5     0.99
   6      1.15345243    -0.50033096 -1054.13238579     0.00000059    -0.00000095  0.21D-09  0.19D-09  6  6     1.15

 Norm of t1 vector:      0.01257385      S-energy:    -0.00000005      T1 diagnostic:  0.00222276
                                                                       D1 diagnostic:  0.00364530

 Total CPU time for triples:      1.82 sec


 RESULTS
 =======

  Reference energy                  -1053.632054830812
  CCSD singlet pair energy             -0.339816960911
  CCSD triplet pair energy             -0.160513953232
  CCSD correlation energy              -0.500330960685

  Triples (T) contribution             -0.017766887230
  Total correlation energy             -0.518097847915

  CCSD total energy                 -1054.132385791498
  CCSD[T] energy                    -1054.150184699762
  CCSD-T energy                     -1054.150162696919
 !CCSD(T) total energy              -1054.150152678727

 Timing summary (sec):

 STEP                 CPU(USER)    SYS     CPU(TOT)    WALL
 Transformation          0.11      0.03      0.14      0.14
 CCSD iterations         1.04      0.04      1.08      1.36
 Triples                 1.82      0.04      1.86      2.54

 Program statistics:

 Available memory in ccsd:                 7999644
 Min. memory needed in ccsd:                301383
 Max. memory used in ccsd:                  379719
 Max. memory used in cckext:                367247 ( 6 integral passes)



 **********************************************************************************************************************************
 DATASETS  * FILE   NREC   LENGTH (MB)   RECORD NAMES
              1      20       63.77       500      610      700      900      950      970     1000      129      960     1100   
                                          VAR    BASINP    GEOM    SYMINP    ZMAT    AOBASIS   BASIS     P2S    ABASIS      S 
                                         1400     1410     1200     1210     1080     1600     1650     1300     1700     1380   
                                           T        V       H0       H01     AOSYM     SMH    MOLCAS    ERIS     OPER     JKOP   

              2       5        0.79       700     1000     2100     2101     2102   
                                         GEOM     BASIS     RHF      RHF      RHF  

 PROGRAMS   *        TOTAL   CCSD(T)        HF   CCSD(T)        HF       INT   CCSD(T)        HF   CCSD(T)        HF   CCSD(T)
 CPU TIMES  *        22.89      2.98      0.09      2.94      0.09      3.81      3.00      0.02      2.96      0.04      2.97
 REAL TIME  *        29.33 SEC
 DISK USED  *       250.46 MB      
 GA USED    *         0.00 MB       (max)       0.00 MB       (current)
 **********************************************************************************************************************************
 SETTING E_AR1          =     -1054.15015268  AU                              

 *** energy of Ar2

 Dummy atoms: AR

1PROGRAM * RHF-SCF (CLOSED SHELL)       Authors: W. Meyer, H.-J. Werner


 NUMBER OF ELECTRONS:      18+   18-
 CONVERGENCE THRESHOLDS:    1.00E-05 (Density)    1.00E-07 (Energy)
 MAX. NUMBER OF ITERATIONS:       60
 INTERPOLATION TYPE:            DIIS
 INTERPOLATION STEPS:              2 (START)      1 (STEP)
 LEVEL SHIFTS:                  0.00 (CLOSED)  0.00 (OPEN) 



 Molecular orbitals read from record     2102.2  Type=RHF/CANONICAL (state 1.1)

 Molecular orbital dump at record        2102.2

 ITERATION    DDIFF          GRAD             ENERGY        2-EL.EN.            DIPOLE MOMENTS         DIIS
    1      0.000D+00      0.000D+00     -1053.63204582    906.562709    0.00000    0.00000    0.00000    0
    2      0.000D+00      0.109D-03     -1053.63205459    906.582561    0.00000    0.00000    0.00000    1
    3      0.204D-03      0.164D-04     -1053.63205482    906.576096    0.00000    0.00000    0.00000    2
    4      0.378D-04      0.373D-05     -1053.63205483    906.578014    0.00000    0.00000    0.00000    3
    5      0.788D-05      0.713D-06     -1053.63205483    906.577904    0.00000    0.00000    0.00000    0

 Final occupancy:   5   2   2   0   5   2   2   0

 !RHF STATE 1.1 Energy              -1053.632054830811
 Nuclear energy                        50.42747521
 One-electron energy                -1557.34848224
 Two-electron energy                  453.28895220
 Virial quotient                       -0.99998863
 !RHF STATE 1.1 Dipole moment           0.00000000     0.00000000     0.00000000
 Dipole moment /Debye                   0.00000000     0.00000000     0.00000000

 Orbital energies:

         1.1          2.1          3.1          4.1          5.1          6.1          7.1
   -118.609477   -12.321408    -9.570691    -1.279122    -0.605528     0.108697     0.137735

         1.2          2.2          3.2          4.2
     -9.570691    -0.593039     0.101756     0.288914

         1.3          2.3          3.3          4.3
     -9.570691    -0.593039     0.101756     0.288914

         1.4          2.4
      0.294839     0.769205

         1.5          2.5          3.5          4.5          5.5          6.5          7.5
   -118.609477   -12.321410    -9.570692    -1.275258    -0.576532     0.087882     0.229509

         1.6          2.6          3.6          4.6
     -9.570691    -0.588426     0.132233     0.412639

         1.7          2.7          3.7          4.7
     -9.570691    -0.588426     0.132233     0.412639

         1.8          2.8
      0.337022     0.790323


 **********************************************************************************************************************************
 DATASETS  * FILE   NREC   LENGTH (MB)   RECORD NAMES
              1      20       63.77       500      610      700      900      950      970     1000      129      960     1100   
                                          VAR    BASINP    GEOM    SYMINP    ZMAT    AOBASIS   BASIS     P2S    ABASIS      S 
                                         1400     1410     1200     1210     1080     1600     1650     1300     1700     1380   
                                           T        V       H0       H01     AOSYM     SMH    MOLCAS    ERIS     OPER     JKOP   

              2       5        0.79       700     1000     2100     2101     2102   
                                         GEOM     BASIS     RHF      RHF      RHF  

 PROGRAMS   *        TOTAL        HF   CCSD(T)        HF   CCSD(T)        HF       INT   CCSD(T)        HF   CCSD(T)        HF
 CPU TIMES  *        22.99      0.09      2.98      0.09      2.94      0.09      3.81      3.00      0.02      2.96      0.04
 REAL TIME  *        29.43 SEC
 DISK USED  *       250.46 MB      
 GA USED    *         0.00 MB       (max)       0.00 MB       (current)
 **********************************************************************************************************************************


1PROGRAM * CCSD (Closed-shell coupled cluster)     Authors: C. Hampel, H.-J. Werner, 1991, M. Deegan, P.J. Knowles, 1992


 Convergence thresholds:  THRVAR = 1.00D-08  THRDEN = 1.00D-06

 CCSD(T)     terms to be evaluated (factor= 1.000)


 Number of core orbitals:          10 (   3   1   1   0   3   1   1   0 )
 Number of closed-shell orbitals:   8 (   2   1   1   0   2   1   1   0 )
 Number of external orbitals:     150 (  28  18  18  11  28  18  18  11 )

 Molecular orbitals read from record     2102.2  Type=RHF/CANONICAL (state 1.1)

 Number of N-1 electron functions:               8
 Number of N-2 electron functions:              36
 Number of singly external CSFs:               184
 Number of doubly external CSFs:             92912
 Total number of CSFs:                       93097

 Length of J-op  integral file:               0.00 MB
 Length of K-op  integral file:               0.31 MB
 Length of 3-ext integral record:             0.00 MB

 Memory could be reduced to 5.15 Mwords without degradation in triples

 Integral transformation finished. Total CPU:   0.13 sec, npass=  1  Memory used:   1.71 MW

 Reference energy:                  -1053.63205483

 MP2 singlet pair energy:              -0.30048972
 MP2 triplet pair energy:              -0.16554959
 MP2 correlation energy:               -0.46603931
 MP2 total energy:                  -1054.09809414

 SCS-MP2 correlation energy:           -0.46359630   (PS=  1.200000  PT=  0.333333)
 SCS-MP2 total energy:              -1054.09565113

 ITER.      SQ.NORM     CORR.ENERGY   TOTAL ENERGY   ENERGY CHANGE        DEN1      VAR(S)    VAR(P)  DIIS     TIME
   1      1.14648858    -0.49918102 -1054.13123585    -0.03314171    -0.02510406  0.11D-03  0.14D-02  1  1     0.30
   2      1.15262604    -0.50037358 -1054.13242841    -0.00119256    -0.00851371  0.30D-05  0.46D-04  2  2     0.47
   3      1.15330701    -0.50031883 -1054.13237366     0.00005475    -0.00061910  0.19D-06  0.24D-05  3  3     0.63
   4      1.15343404    -0.50033145 -1054.13238629    -0.00001263    -0.00004599  0.22D-07  0.75D-07  4  4     0.81
   5      1.15345075    -0.50033155 -1054.13238638    -0.00000009    -0.00000799  0.15D-08  0.32D-08  5  5     0.99
   6      1.15345243    -0.50033096 -1054.13238579     0.00000059    -0.00000095  0.21D-09  0.19D-09  6  6     1.16

 Norm of t1 vector:      0.01257385      S-energy:    -0.00000005      T1 diagnostic:  0.00222276
                                                                       D1 diagnostic:  0.00364530

 Total CPU time for triples:      1.80 sec


 RESULTS
 =======

  Reference energy                  -1053.632054830812
  CCSD singlet pair energy             -0.339816960904
  CCSD triplet pair energy             -0.160513953224
  CCSD correlation energy              -0.500330960688

  Triples (T) contribution             -0.017766887228
  Total correlation energy             -0.518097847916

  CCSD total energy                 -1054.132385791500
  CCSD[T] energy                    -1054.150184699763
  CCSD-T energy                     -1054.150162696920
 !CCSD(T) total energy              -1054.150152678727

 Timing summary (sec):

 STEP                 CPU(USER)    SYS     CPU(TOT)    WALL
 Transformation          0.13      0.01      0.14      0.14
 CCSD iterations         1.03      0.06      1.09      1.09
 Triples                 1.80      0.04      1.84      1.86

 Program statistics:

 Available memory in ccsd:                 7999644
 Min. memory needed in ccsd:                301383
 Max. memory used in ccsd:                  379719
 Max. memory used in cckext:                367247 ( 6 integral passes)



 **********************************************************************************************************************************
 DATASETS  * FILE   NREC   LENGTH (MB)   RECORD NAMES
              1      20       63.77       500      610      700      900      950      970     1000      129      960     1100   
                                          VAR    BASINP    GEOM    SYMINP    ZMAT    AOBASIS   BASIS     P2S    ABASIS      S 
                                         1400     1410     1200     1210     1080     1600     1650     1300     1700     1380   
                                           T        V       H0       H01     AOSYM     SMH    MOLCAS    ERIS     OPER     JKOP   

              2       5        0.79       700     1000     2100     2101     2102   
                                         GEOM     BASIS     RHF      RHF      RHF  

 PROGRAMS   *        TOTAL   CCSD(T)        HF   CCSD(T)        HF   CCSD(T)        HF       INT   CCSD(T)        HF   CCSD(T)
 CPU TIMES  *        25.96      2.97      0.09      2.98      0.09      2.94      0.09      3.81      3.00      0.02      2.96
 REAL TIME  *        32.54 SEC
 DISK USED  *       250.46 MB      
 GA USED    *         0.00 MB       (max)       0.00 MB       (current)
 **********************************************************************************************************************************
 SETTING E_AR2          =     -1054.15015268  AU                              
 SETTING E(2)           =      1054.15015268  AU                              

 DO I                   =         3.00000000   
 SETTING R              =         3.50000000  ANGSTREM                        
 SETTING DIST(3)        =         3.50000000  ANGSTREM                        


 Using spherical harmonics

 Library entry AR     S aug-cc-pVQZ          selected for orbital group  1
 Library entry AR     P aug-cc-pVQZ          selected for orbital group  1
 Library entry AR     D aug-cc-pVQZ          selected for orbital group  1
 Library entry AR     F aug-cc-pVQZ          selected for orbital group  1
 Library entry AR     G aug-cc-pVQZ          selected for orbital group  1

1PROGRAM * SEWARD (Integral evaluation for generally contracted gaussian basis sets)     Author: Roland Lindh, 1990

 Geometry written to block  1 of record 700

 Orientation using atomic masses  
 Molecule type: Linear
 Symmetry elements: X,Y,Z
 Rotational constants:       2.0654565      2.0654565      0.0000000 GHz  (calculated with average atomic masses)

 Point group  D2h 



 ATOMIC COORDINATES

 NR  ATOM    CHARGE       X              Y              Z

   1  AR     18.00    0.000000000    0.000000000   -3.307020730
   2  AR     18.00    0.000000000    0.000000000    3.307020730

 NUCLEAR CHARGE:                   36
 NUMBER OF PRIMITIVE AOS:         274
 NUMBER OF SYMMETRY AOS:          224
 NUMBER OF CONTRACTIONS:          168   (  33Ag  +  20B3u +  20B2u +  11B1g +  33B1u +  20B2g +  20B3g +  11Au  )
 NUMBER OF CORE ORBITALS:          10   (   3Ag  +   1B3u +   1B2u +   0B1g +   3B1u +   1B2g +   1B3g +   0Au  )
 NUMBER OF VALENCE ORBITALS:        8   (   2Ag  +   1B3u +   1B2u +   0B1g +   2B1u +   1B2g +   1B3g +   0Au  )


 NUCLEAR REPULSION ENERGY   48.98669020

 EXTRA SYMMETRY OF AOS IN SYMMETRY 1:   1 1 1 1 1 1 1 1 1 1   1 1 1 1 2 1 2 1 2 1   2 1 2 1 2 1 2 1 3 2   1 3 2
 EXTRA SYMMETRY OF AOS IN SYMMETRY 2:   1 1 1 1 1 1 1 1 1 1   1 2 1 2 1 2 1 2 1 2
 EXTRA SYMMETRY OF AOS IN SYMMETRY 3:   1 1 1 1 1 1 1 1 1 1   1 2 1 2 1 2 1 2 1 2
 EXTRA SYMMETRY OF AOS IN SYMMETRY 4:   1 1 1 1 1 1 1 1 2 1   2
 EXTRA SYMMETRY OF AOS IN SYMMETRY 5:   1 1 1 1 1 1 1 1 1 1   1 1 1 1 2 1 2 1 2 1   2 1 2 1 2 1 2 1 3 2   1 3 2
 EXTRA SYMMETRY OF AOS IN SYMMETRY 6:   1 1 1 1 1 1 1 1 1 1   1 2 1 2 1 2 1 2 1 2
 EXTRA SYMMETRY OF AOS IN SYMMETRY 7:   1 1 1 1 1 1 1 1 1 1   1 2 1 2 1 2 1 2 1 2
 EXTRA SYMMETRY OF AOS IN SYMMETRY 8:   1 1 1 1 1 1 1 1 2 1   2

 Eigenvalues of metric

         1 0.201E-03 0.673E-03 0.109E-01 0.482E-01 0.647E-01 0.841E-01 0.940E-01 0.102E+00
         2 0.685E-03 0.547E-01 0.825E-01 0.985E-01 0.106E+00 0.288E+00 0.339E+00 0.347E+00
         3 0.685E-03 0.547E-01 0.825E-01 0.985E-01 0.106E+00 0.288E+00 0.339E+00 0.347E+00
         4 0.841E-01 0.102E+00 0.339E+00 0.341E+00 0.397E+00 0.706E+00 0.117E+01 0.166E+01
         5 0.196E-03 0.640E-03 0.534E-02 0.133E-01 0.378E-01 0.793E-01 0.795E-01 0.850E-01
         6 0.679E-03 0.475E-01 0.607E-01 0.874E-01 0.978E-01 0.202E+00 0.291E+00 0.335E+00
         7 0.679E-03 0.475E-01 0.607E-01 0.874E-01 0.978E-01 0.202E+00 0.291E+00 0.335E+00
         8 0.795E-01 0.947E-01 0.335E+00 0.339E+00 0.364E+00 0.692E+00 0.110E+01 0.166E+01


 Contracted 2-electron integrals neglected if value below      1.0D-11
 AO integral compression algorithm  1   Integral accuracy      1.0D-11

     79.430 MB (compressed) written to integral file ( 41.6%)

     Node minimum: 79.430 MB, node maximum: 79.430 MB


 NUMBER OF SORTED TWO-ELECTRON INTEGRALS:   13027854.     BUFFER LENGTH:  32768
 NUMBER OF SEGMENTS:   2  SEGMENT LENGTH:    6670587      RECORD LENGTH: 524288

 Memory used in sort:       7.23 MW

 SORT1 READ    23909504. AND WROTE     9952859. INTEGRALS IN     29 RECORDS. CPU TIME:     0.45 SEC, REAL TIME:     0.69 SEC
 SORT2 READ     9952859. AND WROTE    13027854. INTEGRALS IN    303 RECORDS. CPU TIME:     0.34 SEC, REAL TIME:     0.38 SEC

 FILE SIZES:   FILE 1:    47.7 MBYTE,  FILE 4:   121.7 MBYTE,   TOTAL:    169.4 MBYTE

 OPERATOR DM      FOR CENTER  0  COORDINATES:    0.000000    0.000000    0.000000


 **********************************************************************************************************************************
 DATASETS  * FILE   NREC   LENGTH (MB)   RECORD NAMES
              1      19       47.74       500      610      700      900      950      970     1000      129      960     1100   
                                          VAR    BASINP    GEOM    SYMINP    ZMAT    AOBASIS   BASIS     P2S    ABASIS      S 
                                         1400     1410     1200     1210     1080     1600     1650     1300     1700   
                                           T        V       H0       H01     AOSYM     SMH    MOLCAS    ERIS     OPER   

              2       5        0.79       700     1000     2100     2101     2102   
                                         GEOM     BASIS     RHF      RHF      RHF  

 PROGRAMS   *        TOTAL       INT   CCSD(T)        HF   CCSD(T)        HF   CCSD(T)        HF       INT   CCSD(T)        HF
 CPU TIMES  *        29.78      3.82      2.97      0.09      2.98      0.09      2.94      0.09      3.81      3.00      0.02
 REAL TIME  *        37.42 SEC
 DISK USED  *       250.46 MB      
 GA USED    *         0.00 MB       (max)       0.00 MB       (current)
 **********************************************************************************************************************************

1PROGRAM * RHF-SCF (CLOSED SHELL)       Authors: W. Meyer, H.-J. Werner


 NUMBER OF ELECTRONS:      18+   18-
 CONVERGENCE THRESHOLDS:    1.00E-05 (Density)    1.00E-07 (Energy)
 MAX. NUMBER OF ITERATIONS:       60
 INTERPOLATION TYPE:            DIIS
 INTERPOLATION STEPS:              2 (START)      1 (STEP)
 LEVEL SHIFTS:                  0.00 (CLOSED)  0.00 (OPEN) 



 Molecular orbitals read from record     2100.2  Type=RHF/CANONICAL (state 1.1)

 Molecular orbital dump at record        2100.2

 ITERATION    DDIFF          GRAD             ENERGY        2-EL.EN.            DIPOLE MOMENTS         DIIS
    1      0.000D+00      0.000D+00     -1053.63252173    903.674548    0.00000    0.00000    0.00000    0
    2      0.000D+00      0.901D-04     -1053.63252761    903.690536    0.00000    0.00000    0.00000    1
    3      0.166D-03      0.130D-04     -1053.63252776    903.685277    0.00000    0.00000    0.00000    2
    4      0.298D-04      0.293D-05     -1053.63252776    903.686815    0.00000    0.00000    0.00000    3
    5      0.632D-05      0.519D-06     -1053.63252776    903.686724    0.00000    0.00000    0.00000    0

 Final occupancy:   5   2   2   0   5   2   2   0

 !RHF STATE 1.1 Energy              -1053.632527759877
 Nuclear energy                        48.98669020
 One-electron energy                -1554.46258007
 Two-electron energy                  451.84336211
 Virial quotient                       -0.99999380
 !RHF STATE 1.1 Dipole moment           0.00000000     0.00000000     0.00000000
 Dipole moment /Debye                   0.00000000     0.00000000     0.00000000

 Orbital energies:

         1.1          2.1          3.1          4.1          5.1          6.1          7.1
   -118.609730   -12.321622    -9.570907    -1.278723    -0.603157     0.108699     0.136421

         1.2          2.2          3.2          4.2
     -9.570908    -0.592668     0.101400     0.287562

         1.3          2.3          3.3          4.3
     -9.570908    -0.592668     0.101400     0.287562

         1.4          2.4
      0.296220     0.768933

         1.5          2.5          3.5          4.5          5.5          6.5          7.5
   -118.609730   -12.321624    -9.570907    -1.275742    -0.578934     0.088750     0.226733

         1.6          2.6          3.6          4.6
     -9.570908    -0.588942     0.131842     0.407568

         1.7          2.7          3.7          4.7
     -9.570908    -0.588942     0.131842     0.407568

         1.8          2.8
      0.334956     0.789873


 **********************************************************************************************************************************
 DATASETS  * FILE   NREC   LENGTH (MB)   RECORD NAMES
              1      19       47.74       500      610      700      900      950      970     1000      129      960     1100   
                                          VAR    BASINP    GEOM    SYMINP    ZMAT    AOBASIS   BASIS     P2S    ABASIS      S 
                                         1400     1410     1200     1210     1080     1600     1650     1300     1700   
                                           T        V       H0       H01     AOSYM     SMH    MOLCAS    ERIS     OPER   

              2       5        0.79       700     1000     2100     2101     2102   
                                         GEOM     BASIS     RHF      RHF      RHF  

 PROGRAMS   *        TOTAL        HF       INT   CCSD(T)        HF   CCSD(T)        HF   CCSD(T)        HF       INT   CCSD(T)
 CPU TIMES  *        29.87      0.09      3.82      2.97      0.09      2.98      0.09      2.94      0.09      3.81      3.00
 REAL TIME  *        37.63 SEC
 DISK USED  *       250.46 MB      
 GA USED    *         0.00 MB       (max)       0.00 MB       (current)
 **********************************************************************************************************************************


1PROGRAM * CCSD (Closed-shell coupled cluster)     Authors: C. Hampel, H.-J. Werner, 1991, M. Deegan, P.J. Knowles, 1992


 Convergence thresholds:  THRVAR = 1.00D-08  THRDEN = 1.00D-06

 CCSD(T)     terms to be evaluated (factor= 1.000)


 Number of core orbitals:          10 (   3   1   1   0   3   1   1   0 )
 Number of closed-shell orbitals:   8 (   2   1   1   0   2   1   1   0 )
 Number of external orbitals:     150 (  28  18  18  11  28  18  18  11 )

 Molecular orbitals read from record     2100.2  Type=RHF/CANONICAL (state 1.1)

 Number of N-1 electron functions:               8
 Number of N-2 electron functions:              36
 Number of singly external CSFs:               184
 Number of doubly external CSFs:             92912
 Total number of CSFs:                       93097

 Length of J-op  integral file:               0.00 MB
 Length of K-op  integral file:               0.31 MB
 Length of 3-ext integral record:             0.00 MB

 Memory could be reduced to 5.15 Mwords without degradation in triples

 Integral transformation finished. Total CPU:   0.09 sec, npass=  1  Memory used:   1.71 MW

 Reference energy:                  -1053.63252776

 MP2 singlet pair energy:              -0.30040485
 MP2 triplet pair energy:              -0.16534799
 MP2 correlation energy:               -0.46575284
 MP2 total energy:                  -1054.09828060

 SCS-MP2 correlation energy:           -0.46336902   (PS=  1.200000  PT=  0.333333)
 SCS-MP2 total energy:              -1054.09589678

 ITER.      SQ.NORM     CORR.ENERGY   TOTAL ENERGY   ENERGY CHANGE        DEN1      VAR(S)    VAR(P)  DIIS     TIME
   1      1.14644539    -0.49895188 -1054.13147964    -0.03319903    -0.02515875  0.11D-03  0.14D-02  1  1     0.26
   2      1.15258458    -0.50014438 -1054.13267214    -0.00119250    -0.00851848  0.30D-05  0.45D-04  2  2     0.44
   3      1.15326407    -0.50009008 -1054.13261784     0.00005430    -0.00061778  0.18D-06  0.23D-05  3  3     0.61
   4      1.15339043    -0.50010283 -1054.13263059    -0.00001275    -0.00004563  0.22D-07  0.75D-07  4  4     0.78
   5      1.15340709    -0.50010288 -1054.13263064    -0.00000005    -0.00000807  0.14D-08  0.32D-08  5  5     0.94
   6      1.15340870    -0.50010230 -1054.13263006     0.00000057    -0.00000089  0.21D-09  0.18D-09  6  6     1.11

 Norm of t1 vector:      0.01252661      S-energy:    -0.00000004      T1 diagnostic:  0.00221441
                                                                       D1 diagnostic:  0.00359020

 Total CPU time for triples:      1.80 sec


 RESULTS
 =======

  Reference energy                  -1053.632527759877
  CCSD singlet pair energy             -0.339760692018
  CCSD triplet pair energy             -0.160341567525
  CCSD correlation energy              -0.500102302182

  Triples (T) contribution             -0.017733900070
  Total correlation energy             -0.517836202253

  CCSD total energy                 -1054.132630062060
  CCSD[T] energy                    -1054.150396115994
  CCSD-T energy                     -1054.150374073550
 !CCSD(T) total energy              -1054.150363962130

 Timing summary (sec):

 STEP                 CPU(USER)    SYS     CPU(TOT)    WALL
 Transformation          0.10      0.04      0.14      0.14
 CCSD iterations         1.01      0.08      1.09      1.52
 Triples                 1.80      0.07      1.87      2.46

 Program statistics:

 Available memory in ccsd:                 7999644
 Min. memory needed in ccsd:                301383
 Max. memory used in ccsd:                  379719
 Max. memory used in cckext:                367247 ( 6 integral passes)



[...]
              1      20       59.68       500      610      700      900      950      970     1000      129      960     1100   
                                          VAR    BASINP    GEOM    SYMINP    ZMAT    AOBASIS   BASIS     P2S    ABASIS      S 
                                         1400     1410     1200     1210     1080     1600     1650     1300     1700     1380   
                                           T        V       H0       H01     AOSYM     SMH    MOLCAS    ERIS     OPER     JKOP   

              2       5        0.79       700     1000     2100     2101     2102   
                                         GEOM     BASIS     RHF      RHF      RHF  

 PROGRAMS   *        TOTAL   CCSD(T)        HF       INT   CCSD(T)        HF   CCSD(T)        HF   CCSD(T)        HF       INT
 CPU TIMES  *       514.46      3.01      0.06      2.24      2.98      0.06      3.01      0.07      2.97      0.05      2.25
 REAL TIME  *       706.48 SEC
 DISK USED  *       250.46 MB      
 GA USED    *         0.00 MB       (max)       0.00 MB       (current)
 **********************************************************************************************************************************
 SETTING E_COMPLEX      =     -1054.15012035  AU                              

 *** energy of Ar1

 Dummy atoms: AR

1PROGRAM * RHF-SCF (CLOSED SHELL)       Authors: W. Meyer, H.-J. Werner


 NUMBER OF ELECTRONS:      18+   18-
 CONVERGENCE THRESHOLDS:    1.00E-05 (Density)    1.00E-07 (Energy)
 MAX. NUMBER OF ITERATIONS:       60
 INTERPOLATION TYPE:            DIIS
 INTERPOLATION STEPS:              2 (START)      1 (STEP)
 LEVEL SHIFTS:                  0.00 (CLOSED)  0.00 (OPEN) 



 Molecular orbitals read from record     2101.2  Type=RHF/CANONICAL (state 1.1)

 Molecular orbital dump at record        2101.2

 ITERATION    DDIFF          GRAD             ENERGY        2-EL.EN.            DIPOLE MOMENTS         DIIS
    1      0.000D+00      0.000D+00     -1053.63360990    851.403441    0.00000    0.00000    0.00000    0
    2      0.000D+00      0.194D-05     -1053.63360990    851.403400    0.00000    0.00000    0.00000    1
    3      0.529D-05      0.157D-06     -1053.63360990    851.403406    0.00000    0.00000    0.00000    0

 Final occupancy:   5   2   2   0   5   2   2   0

 !RHF STATE 1.1 Energy              -1053.633609904838
 Nuclear energy                        22.86045543
 One-electron energy                -1502.19576842
 Two-electron energy                  425.70170308
 Virial quotient                       -1.00000694
 !RHF STATE 1.1 Dipole moment           0.00000000     0.00000000     0.00000000
 Dipole moment /Debye                   0.00000000     0.00000000     0.00000000

 Orbital energies:

         1.1          2.1          3.1          4.1          5.1          6.1          7.1
   -118.610475   -12.322273    -9.571563    -1.277430    -0.591080     0.091248     0.120547

         1.2          2.2          3.2          4.2
     -9.571563    -0.591075     0.105980     0.314116

         1.3          2.3          3.3          4.3
     -9.571563    -0.591075     0.105980     0.314116

         1.4          2.4
      0.314331     0.778060

         1.5          2.5          3.5          4.5          5.5          6.5          7.5
   -118.610475   -12.322273    -9.571563    -1.277430    -0.591070     0.115800     0.138174

         1.6          2.6          3.6          4.6
     -9.571563    -0.591074     0.113256     0.314599

         1.7          2.7          3.7          4.7
     -9.571563    -0.591074     0.113256     0.314599

         1.8          2.8
      0.314355     0.778082


 **********************************************************************************************************************************
 DATASETS  * FILE   NREC   LENGTH (MB)   RECORD NAMES
              1      20       59.68       500      610      700      900      950      970     1000      129      960     1100   
                                          VAR    BASINP    GEOM    SYMINP    ZMAT    AOBASIS   BASIS     P2S    ABASIS      S 
                                         1400     1410     1200     1210     1080     1600     1650     1300     1700     1380   
                                           T        V       H0       H01     AOSYM     SMH    MOLCAS    ERIS     OPER     JKOP   

              2       5        0.79       700     1000     2100     2101     2102   
                                         GEOM     BASIS     RHF      RHF      RHF  

 PROGRAMS   *        TOTAL        HF   CCSD(T)        HF       INT   CCSD(T)        HF   CCSD(T)        HF   CCSD(T)        HF
 CPU TIMES  *       514.52      0.06      3.01      0.06      2.24      2.98      0.06      3.01      0.07      2.97      0.05
 REAL TIME  *       706.62 SEC
 DISK USED  *       250.46 MB      
 GA USED    *         0.00 MB       (max)       0.00 MB       (current)
 **********************************************************************************************************************************


1PROGRAM * CCSD (Closed-shell coupled cluster)     Authors: C. Hampel, H.-J. Werner, 1991, M. Deegan, P.J. Knowles, 1992


 Convergence thresholds:  THRVAR = 1.00D-08  THRDEN = 1.00D-06

 CCSD(T)     terms to be evaluated (factor= 1.000)


 Number of core orbitals:          10 (   3   1   1   0   3   1   1   0 )
 Number of closed-shell orbitals:   8 (   2   1   1   0   2   1   1   0 )
 Number of external orbitals:     150 (  28  18  18  11  28  18  18  11 )

 Molecular orbitals read from record     2101.2  Type=RHF/CANONICAL (state 1.1)

 Number of N-1 electron functions:               8
 Number of N-2 electron functions:              36
 Number of singly external CSFs:               184
 Number of doubly external CSFs:             92912
 Total number of CSFs:                       93097

 Length of J-op  integral file:               0.00 MB
 Length of K-op  integral file:               0.31 MB
 Length of 3-ext integral record:             0.00 MB

 Memory could be reduced to 5.15 Mwords without degradation in triples

 Integral transformation finished. Total CPU:   0.11 sec, npass=  1  Memory used:   1.71 MW

 Reference energy:                  -1053.63360990

 MP2 singlet pair energy:              -0.29997385
 MP2 triplet pair energy:              -0.16433117
 MP2 correlation energy:               -0.46430502
 MP2 total energy:                  -1054.09791492

 SCS-MP2 correlation energy:           -0.46221912   (PS=  1.200000  PT=  0.333333)
 SCS-MP2 total energy:              -1054.09582903

 ITER.      SQ.NORM     CORR.ENERGY   TOTAL ENERGY   ENERGY CHANGE        DEN1      VAR(S)    VAR(P)  DIIS     TIME
   1      1.14615300    -0.49780144 -1054.13141135    -0.03349643    -0.02544167  0.11D-03  0.14D-02  1  1     0.27
   2      1.15229645    -0.49899317 -1054.13260307    -0.00119173    -0.00854386  0.30D-05  0.45D-04  2  2     0.45
   3      1.15296693    -0.49894115 -1054.13255106     0.00005202    -0.00061043  0.13D-06  0.23D-05  3  3     0.62
   4      1.15308926    -0.49895452 -1054.13256442    -0.00001336    -0.00004397  0.21D-07  0.72D-07  4  4     0.80
   5      1.15310545    -0.49895431 -1054.13256422     0.00000021    -0.00000844  0.11D-08  0.29D-08  5  5     0.97
   6      1.15310655    -0.49895381 -1054.13256371     0.00000050    -0.00000055  0.20D-09  0.14D-09  6  6     1.15

 Norm of t1 vector:      0.01237681      S-energy:    -0.00000004      T1 diagnostic:  0.00218793
                                                                       D1 diagnostic:  0.00314637

 Total CPU time for triples:      1.80 sec


 RESULTS
 =======

  Reference energy                  -1053.633609904838
  CCSD singlet pair energy             -0.339482359431
  CCSD triplet pair energy             -0.159471403520
  CCSD correlation energy              -0.498953807646

  Triples (T) contribution             -0.017556635134
  Total correlation energy             -0.516510442780

  CCSD total energy                 -1054.132563712484
  CCSD[T] energy                    -1054.150153416003
  CCSD-T energy                     -1054.150130730005
 !CCSD(T) total energy              -1054.150120347618

 Timing summary (sec):

 STEP                 CPU(USER)    SYS     CPU(TOT)    WALL
 Transformation          0.11      0.03      0.14      0.29
 CCSD iterations         1.04      0.06      1.10      1.52
 Triples                 1.80      0.06      1.86      2.25

 Program statistics:

 Available memory in ccsd:                 7999644
 Min. memory needed in ccsd:                301383
 Max. memory used in ccsd:                  379719
 Max. memory used in cckext:                367247 ( 6 integral passes)



 **********************************************************************************************************************************
 DATASETS  * FILE   NREC   LENGTH (MB)   RECORD NAMES
              1      20       59.68       500      610      700      900      950      970     1000      129      960     1100   
                                          VAR    BASINP    GEOM    SYMINP    ZMAT    AOBASIS   BASIS     P2S    ABASIS      S 
                                         1400     1410     1200     1210     1080     1600     1650     1300     1700     1380   
                                           T        V       H0       H01     AOSYM     SMH    MOLCAS    ERIS     OPER     JKOP   

              2       5        0.79       700     1000     2100     2101     2102   
                                         GEOM     BASIS     RHF      RHF      RHF  

 PROGRAMS   *        TOTAL   CCSD(T)        HF   CCSD(T)        HF       INT   CCSD(T)        HF   CCSD(T)        HF   CCSD(T)
 CPU TIMES  *       517.50      2.98      0.06      3.01      0.06      2.24      2.98      0.06      3.01      0.07      2.97
 REAL TIME  *       710.72 SEC
 DISK USED  *       250.46 MB      
 GA USED    *         0.00 MB       (max)       0.00 MB       (current)
 **********************************************************************************************************************************
 SETTING E_AR1          =     -1054.15012035  AU                              

 *** energy of Ar2

 Dummy atoms: AR

1PROGRAM * RHF-SCF (CLOSED SHELL)       Authors: W. Meyer, H.-J. Werner


 NUMBER OF ELECTRONS:      18+   18-
 CONVERGENCE THRESHOLDS:    1.00E-05 (Density)    1.00E-07 (Energy)
 MAX. NUMBER OF ITERATIONS:       60
 INTERPOLATION TYPE:            DIIS
 INTERPOLATION STEPS:              2 (START)      1 (STEP)
 LEVEL SHIFTS:                  0.00 (CLOSED)  0.00 (OPEN) 



 Molecular orbitals read from record     2102.2  Type=RHF/CANONICAL (state 1.1)

 Molecular orbital dump at record        2102.2

 ITERATION    DDIFF          GRAD             ENERGY        2-EL.EN.            DIPOLE MOMENTS         DIIS
    1      0.000D+00      0.000D+00     -1053.63360990    851.403441    0.00000    0.00000    0.00000    0
    2      0.000D+00      0.194D-05     -1053.63360990    851.403400    0.00000    0.00000    0.00000    1
    3      0.529D-05      0.157D-06     -1053.63360990    851.403406    0.00000    0.00000    0.00000    0

 Final occupancy:   5   2   2   0   5   2   2   0

 !RHF STATE 1.1 Energy              -1053.633609904838
 Nuclear energy                        22.86045543
 One-electron energy                -1502.19576842
 Two-electron energy                  425.70170308
 Virial quotient                       -1.00000694
 !RHF STATE 1.1 Dipole moment           0.00000000     0.00000000     0.00000000
 Dipole moment /Debye                   0.00000000     0.00000000     0.00000000

 Orbital energies:

         1.1          2.1          3.1          4.1          5.1          6.1          7.1
   -118.610475   -12.322273    -9.571563    -1.277430    -0.591080     0.091248     0.120547

         1.2          2.2          3.2          4.2
     -9.571563    -0.591075     0.105980     0.314116

         1.3          2.3          3.3          4.3
     -9.571563    -0.591075     0.105980     0.314116

         1.4          2.4
      0.314331     0.778060

         1.5          2.5          3.5          4.5          5.5          6.5          7.5
   -118.610475   -12.322273    -9.571563    -1.277430    -0.591070     0.115800     0.138174

         1.6          2.6          3.6          4.6
     -9.571563    -0.591074     0.113256     0.314599

         1.7          2.7          3.7          4.7
     -9.571563    -0.591074     0.113256     0.314599

         1.8          2.8
      0.314355     0.778082


 **********************************************************************************************************************************
 DATASETS  * FILE   NREC   LENGTH (MB)   RECORD NAMES
              1      20       59.68       500      610      700      900      950      970     1000      129      960     1100   
                                          VAR    BASINP    GEOM    SYMINP    ZMAT    AOBASIS   BASIS     P2S    ABASIS      S 
                                         1400     1410     1200     1210     1080     1600     1650     1300     1700     1380   
                                           T        V       H0       H01     AOSYM     SMH    MOLCAS    ERIS     OPER     JKOP   

              2       5        0.79       700     1000     2100     2101     2102   
                                         GEOM     BASIS     RHF      RHF      RHF  

 PROGRAMS   *        TOTAL        HF   CCSD(T)        HF   CCSD(T)        HF       INT   CCSD(T)        HF   CCSD(T)        HF
 CPU TIMES  *       517.56      0.05      2.98      0.06      3.01      0.06      2.24      2.98      0.06      3.01      0.07
 REAL TIME  *       710.87 SEC
 DISK USED  *       250.46 MB      
 GA USED    *         0.00 MB       (max)       0.00 MB       (current)
 **********************************************************************************************************************************


1PROGRAM * CCSD (Closed-shell coupled cluster)     Authors: C. Hampel, H.-J. Werner, 1991, M. Deegan, P.J. Knowles, 1992


 Convergence thresholds:  THRVAR = 1.00D-08  THRDEN = 1.00D-06

 CCSD(T)     terms to be evaluated (factor= 1.000)


 Number of core orbitals:          10 (   3   1   1   0   3   1   1   0 )
 Number of closed-shell orbitals:   8 (   2   1   1   0   2   1   1   0 )
 Number of external orbitals:     150 (  28  18  18  11  28  18  18  11 )

 Molecular orbitals read from record     2102.2  Type=RHF/CANONICAL (state 1.1)

 Number of N-1 electron functions:               8
 Number of N-2 electron functions:              36
 Number of singly external CSFs:               184
 Number of doubly external CSFs:             92912
 Total number of CSFs:                       93097

 Length of J-op  integral file:               0.00 MB
 Length of K-op  integral file:               0.31 MB
 Length of 3-ext integral record:             0.00 MB

 Memory could be reduced to 5.15 Mwords without degradation in triples

 Integral transformation finished. Total CPU:   0.11 sec, npass=  1  Memory used:   1.71 MW

 Reference energy:                  -1053.63360990

 MP2 singlet pair energy:              -0.29997385
 MP2 triplet pair energy:              -0.16433117
 MP2 correlation energy:               -0.46430502
 MP2 total energy:                  -1054.09791492

 SCS-MP2 correlation energy:           -0.46221912   (PS=  1.200000  PT=  0.333333)
 SCS-MP2 total energy:              -1054.09582903

 ITER.      SQ.NORM     CORR.ENERGY   TOTAL ENERGY   ENERGY CHANGE        DEN1      VAR(S)    VAR(P)  DIIS     TIME
   1      1.14615300    -0.49780144 -1054.13141135    -0.03349643    -0.02544167  0.11D-03  0.14D-02  1  1     0.29
   2      1.15229645    -0.49899317 -1054.13260307    -0.00119173    -0.00854386  0.30D-05  0.45D-04  2  2     0.47
   3      1.15296693    -0.49894115 -1054.13255106     0.00005202    -0.00061043  0.13D-06  0.23D-05  3  3     0.65
   4      1.15308926    -0.49895452 -1054.13256442    -0.00001336    -0.00004397  0.21D-07  0.72D-07  4  4     0.83
   5      1.15310545    -0.49895431 -1054.13256422     0.00000021    -0.00000844  0.11D-08  0.29D-08  5  5     0.99
   6      1.15310655    -0.49895381 -1054.13256371     0.00000050    -0.00000055  0.20D-09  0.14D-09  6  6     1.17

 Norm of t1 vector:      0.01237681      S-energy:    -0.00000004      T1 diagnostic:  0.00218793
                                                                       D1 diagnostic:  0.00314637

 Total CPU time for triples:      1.84 sec


 RESULTS
 =======

  Reference energy                  -1053.633609904838
  CCSD singlet pair energy             -0.339482359431
  CCSD triplet pair energy             -0.159471403520
  CCSD correlation energy              -0.498953807646

  Triples (T) contribution             -0.017556635134
  Total correlation energy             -0.516510442780

  CCSD total energy                 -1054.132563712484
  CCSD[T] energy                    -1054.150153416004
  CCSD-T energy                     -1054.150130730005
 !CCSD(T) total energy              -1054.150120347618

 Timing summary (sec):

 STEP                 CPU(USER)    SYS     CPU(TOT)    WALL
 Transformation          0.12      0.02      0.14      0.28
 CCSD iterations         1.05      0.06      1.11      1.41
 Triples                 1.84      0.04      1.88      3.51

 Program statistics:

 Available memory in ccsd:                 7999644
 Min. memory needed in ccsd:                301383
 Max. memory used in ccsd:                  379719
 Max. memory used in cckext:                367247 ( 6 integral passes)



 **********************************************************************************************************************************
 DATASETS  * FILE   NREC   LENGTH (MB)   RECORD NAMES
              1      20       59.68       500      610      700      900      950      970     1000      129      960     1100   
                                          VAR    BASINP    GEOM    SYMINP    ZMAT    AOBASIS   BASIS     P2S    ABASIS      S 
                                         1400     1410     1200     1210     1080     1600     1650     1300     1700     1380   
                                           T        V       H0       H01     AOSYM     SMH    MOLCAS    ERIS     OPER     JKOP   

              2       5        0.79       700     1000     2100     2101     2102   
                                         GEOM     BASIS     RHF      RHF      RHF  

 PROGRAMS   *        TOTAL   CCSD(T)        HF   CCSD(T)        HF   CCSD(T)        HF       INT   CCSD(T)        HF   CCSD(T)
 CPU TIMES  *       520.58      3.03      0.05      2.98      0.06      3.01      0.06      2.24      2.98      0.06      3.01
 REAL TIME  *       716.09 SEC
 DISK USED  *       250.46 MB      
 GA USED    *         0.00 MB       (max)       0.00 MB       (current)
 **********************************************************************************************************************************
 SETTING E_AR2          =     -1054.15012035  AU                              
 SETTING E(43)          =      1054.15012035  AU                              
                                                                                                                                                                                                                                                                

 ERROR IN MAKETAB: STRING COLUMN "DIP_X" SPECIFIED AFTER DATA COLUMN(S)

        CCSD(T)         HF-SCF          CCSD(T)         HF-SCF          CCSD(T)         HF-SCF          CCSD(T)         HF-SCF  
  -1054.15012035  -1053.63360990  -1054.15012035  -1053.63360990  -1054.15012035  -1053.63360990  -1054.15012127  -1053.63360994
 **********************************************************************************************************************************
 Variable memory released
