
 Primary working directories    : /mnt/SSD/student17
 Secondary working directories  : /mnt/SSD/student17
 Wavefunction directory         : /home/student17/wfu/
 Main file repository           : /mnt/SSD/student17/

 ARCHNAME  : Linux/x86_64
 FC        : /usr/bin/gfortran
 FCVERSION : 4.7.2
 BLASLIB   : -L/opt/intel/mkl/lib/intel64 -lmkl_intel_ilp64 -lmkl_sequential -lmkl_core
 id        : plat

 Nodes     nprocs
 debserv      1
 ga_uses_ma=false, calling ma_init with nominal heap.
 GA-space will be limited to   8.0 MW (determined by -G option)

 Using customized tuning parameters: mindgm=12; mindgv=24; mindgc=8; mindgr=1; noblas=0; mincuda=1000; minvec=7
 default implementation of scratch files=df  

 ***,Ar-Ar
 
 basis = t-aug-cc-pvqz                                                           ! basis set
 
 geometry = {ar; ar, ar, r}
 r_min = 3.30, angstrem
 r_max = 7.50, angstrem
 n = 43
 
 do i=1, n
 r = r_min + (r_max - r_min)/(n-1) * (i-1)
 dist(i) = r
 
                                                                                 ! hartree fock
 hf
 ccsd(t)
 e_vdw = energy
 
                                                                                 ! atomic energies?
                                                                                 ! dummy ar
                                                                                 ! hf
                                                                                 ! ccsd(t)
                                                                                 ! e_atomic = energy
 
 e(i) = e_vdw
 enddo
 
 table dist, e
 save ar2.tab, new

 Variables initialized (661), CPU time= 0.00 sec
 Commands  initialized (460), CPU time= 0.01 sec, 486 directives.
 Default parameters read. Elapsed time= 0.02 sec

 Checking input...
 Passed
1


                                         ***  PROGRAM SYSTEM MOLPRO  ***
                         Copyright, University College Cardiff Consultants Limited, 2008

                                    Version 2010.1 linked 30 Ноя 2013 12:52


 **********************************************************************************************************************************
 LABEL *   Ar-Ar                                                                         
 Linux-3.2.0-4-amd64/debserv(x86_64) 64 bit mpp version                                  DATE: 02-Jun-17          TIME: 23:46:23  
 **********************************************************************************************************************************

 SHA1:             fd122acbd35ef3619fab5330ac0556b6c1fa4be2
 **********************************************************************************************************************************

 Variable memory set to    8000000 words,  buffer space   230000 words

 SETTING BASIS          =    T-AUG-CC-PVQZ
 SETTING R_MIN          =         3.30000000  ANGSTREM                        
 SETTING R_MAX          =         7.50000000  ANGSTREM                        
 SETTING N              =        43.00000000                                  

 DO I                   =         1.00000000   
 SETTING R              =         3.30000000  ANGSTREM                        
 SETTING DIST(1)        =         3.30000000  ANGSTREM                        


 Recomputing integrals since basis changed


 Using spherical harmonics

 Library entry AR     S aug-cc-pVQZ          selected for orbital group  1
 Even tempered Ar S diffuse               selected for group 1    nprim= 2    centre=  0.013    ratio= 2.810    dratio= 1.000
 Library entry AR     P aug-cc-pVQZ          selected for orbital group  1
 Even tempered Ar P diffuse               selected for group 1    nprim= 2    centre=  0.009    ratio= 2.855    dratio= 1.000
 Library entry AR     D aug-cc-pVQZ          selected for orbital group  1
 Even tempered Ar D diffuse               selected for group 1    nprim= 2    centre=  0.026    ratio= 2.681    dratio= 1.000
 Library entry AR     F aug-cc-pVQZ          selected for orbital group  1
 Even tempered Ar F diffuse               selected for group 1    nprim= 2    centre=  0.117    ratio= 1.847    dratio= 1.000
 Library entry AR     G aug-cc-pVQZ          selected for orbital group  1
 Even tempered Ar G diffuse               selected for group 1    nprim= 2    centre=  0.141    ratio= 2.194    dratio= 1.000

1PROGRAM * SEWARD (Integral evaluation for generally contracted gaussian basis sets)     Author: Roland Lindh, 1990

 Geometry written to block  1 of record 700

 Orientation using atomic masses  
 Molecule type: Linear
 Symmetry elements: X,Y,Z
 Rotational constants:       2.3234015      2.3234015      0.0000000 GHz  (calculated with average atomic masses)

 Point group  D2h 



 ATOMIC COORDINATES

 NR  ATOM    CHARGE       X              Y              Z

   1  AR     18.00    0.000000000    0.000000000   -3.118048117
   2  AR     18.00    0.000000000    0.000000000    3.118048117

 NUCLEAR CHARGE:                   36
 NUMBER OF PRIMITIVE AOS:         414
 NUMBER OF SYMMETRY AOS:          324
 NUMBER OF CONTRACTIONS:          268   (  51Ag  +  32B3u +  32B2u +  19B1g +  51B1u +  32B2g +  32B3g +  19Au  )
 NUMBER OF CORE ORBITALS:          10   (   3Ag  +   1B3u +   1B2u +   0B1g +   3B1u +   1B2g +   1B3g +   0Au  )
 NUMBER OF VALENCE ORBITALS:        8   (   2Ag  +   1B3u +   1B2u +   0B1g +   2B1u +   1B2g +   1B3g +   0Au  )


 NUCLEAR REPULSION ENERGY   51.95558052

 EXTRA SYMMETRY OF AOS IN SYMMETRY 1:   1 1 1 1 1 1 1 1 1 1   1 1 1 1 1 1 1 1 2 1   2 1 2 1 2 1 2 1 2 1   2 1 2 1 2 1 2 1 2 1
                                        3 2 1 3 2 1 3 2 1 3   2
 EXTRA SYMMETRY OF AOS IN SYMMETRY 2:   1 1 1 1 1 1 1 1 1 1   1 1 1 1 1 2 1 2 1 2   1 2 1 2 1 2 1 2 1 2   1 2
 EXTRA SYMMETRY OF AOS IN SYMMETRY 3:   1 1 1 1 1 1 1 1 1 1   1 1 1 1 1 2 1 2 1 2   1 2 1 2 1 2 1 2 1 2   1 2
 EXTRA SYMMETRY OF AOS IN SYMMETRY 4:   1 1 1 1 1 1 1 1 1 1   1 1 2 1 2 1 2 1 2
 EXTRA SYMMETRY OF AOS IN SYMMETRY 5:   1 1 1 1 1 1 1 1 1 1   1 1 1 1 1 1 1 1 2 1   2 1 2 1 2 1 2 1 2 1   2 1 2 1 2 1 2 1 2 1
                                        3 2 1 3 2 1 3 2 1 3   2
 EXTRA SYMMETRY OF AOS IN SYMMETRY 6:   1 1 1 1 1 1 1 1 1 1   1 1 1 1 1 2 1 2 1 2   1 2 1 2 1 2 1 2 1 2   1 2
 EXTRA SYMMETRY OF AOS IN SYMMETRY 7:   1 1 1 1 1 1 1 1 1 1   1 1 1 1 1 2 1 2 1 2   1 2 1 2 1 2 1 2 1 2   1 2
 EXTRA SYMMETRY OF AOS IN SYMMETRY 8:   1 1 1 1 1 1 1 1 1 1   1 1 2 1 2 1 2 1 2

 Eigenvalues of metric

         1 0.187E-03 0.612E-03 0.204E-02 0.460E-02 0.545E-02 0.156E-01 0.162E-01 0.306E-01
         2 0.664E-03 0.847E-02 0.171E-01 0.267E-01 0.424E-01 0.716E-01 0.101E+00 0.108E+00
         3 0.664E-03 0.847E-02 0.171E-01 0.267E-01 0.424E-01 0.716E-01 0.101E+00 0.108E+00
         4 0.162E-01 0.575E-01 0.102E+00 0.107E+00 0.130E+00 0.179E+00 0.369E+00 0.449E+00
         5 0.478E-04 0.184E-03 0.289E-03 0.620E-03 0.157E-02 0.497E-02 0.702E-02 0.704E-02
         6 0.643E-03 0.107E-02 0.390E-02 0.822E-02 0.146E-01 0.233E-01 0.324E-01 0.564E-01
         7 0.643E-03 0.107E-02 0.390E-02 0.822E-02 0.146E-01 0.233E-01 0.324E-01 0.564E-01
         8 0.704E-02 0.267E-01 0.466E-01 0.969E-01 0.985E-01 0.113E+00 0.165E+00 0.282E+00


 Contracted 2-electron integrals neglected if value below      1.0D-12
 insufficient memory available - require               5121024  have               3773892
 the request was for real words

 GLOBAL ERROR fehler on processor   0                                         
