
 Primary working directories    : /mnt/SSD/student17
 Secondary working directories  : /mnt/SSD/student17
 Wavefunction directory         : /home/student17/wfu/
 Main file repository           : /mnt/SSD/student17/

 ARCHNAME  : Linux/x86_64
 FC        : /usr/bin/gfortran
 FCVERSION : 4.7.2
 BLASLIB   : -L/opt/intel/mkl/lib/intel64 -lmkl_intel_ilp64 -lmkl_sequential -lmkl_core
 id        : plat

 Nodes     nprocs
 debserv      1
 ga_uses_ma=false, calling ma_init with nominal heap.
 GA-space will be limited to   8.0 MW (determined by -G option)

 Using customized tuning parameters: mindgm=12; mindgv=24; mindgc=8; mindgr=1; noblas=0; mincuda=1000; minvec=7
 default implementation of scratch files=df  

 ***,Ar-Ar
 
                                                                                 ! basis = aug-cc-pvqz ! basis set
 basis = aug-cc-pwCV5Z
 
 geometry = {ar; ar, ar, r}
 r_min = 3.30, angstrem
 r_max = 7.50, angstrem
 n = 43
 
 do i=1, n
 r = r_min + (r_max - r_min)/(n-1) * (i-1)
 dist(i) = r
 
                                                                                 ! hartree fock
 hf
 ccsd(t)
 e_vdw = energy
 
                                                                                 ! atomic energies?
                                                                                 ! dummy ar
                                                                                 ! hf
                                                                                 ! ccsd(t)
                                                                                 ! e_atomic = energy
 
 e(i) = e_vdw
 enddo
 
 table dist, e
 save ar2.tab, new

 Variables initialized (661), CPU time= 0.00 sec
 Commands  initialized (460), CPU time= 0.00 sec, 486 directives.
 Default parameters read. Elapsed time= 0.01 sec

 Checking input...
 Passed
1


                                         ***  PROGRAM SYSTEM MOLPRO  ***
                         Copyright, University College Cardiff Consultants Limited, 2008

                                    Version 2010.1 linked 30 –ù–æ—è 2013 12:52


 **********************************************************************************************************************************
 LABEL *   Ar-Ar                                                                         
 Linux-3.2.0-4-amd64/debserv(x86_64) 64 bit mpp version                                  DATE: 02-Jun-17          TIME: 23:48:52  
 **********************************************************************************************************************************

 SHA1:             fd122acbd35ef3619fab5330ac0556b6c1fa4be2
 **********************************************************************************************************************************

 Variable memory set to    8000000 words,  buffer space   230000 words

 SETTING BASIS          =    AUG-CC-PWCV5Z
 SETTING R_MIN          =         3.30000000  ANGSTREM                        
 SETTING R_MAX          =         7.50000000  ANGSTREM                        
 SETTING N              =        43.00000000                                  

 DO I                   =         1.00000000   
 SETTING R              =         3.30000000  ANGSTREM                        
 SETTING DIST(1)        =         3.30000000  ANGSTREM                        


 Recomputing integrals since basis changed


 Using spherical harmonics

 Library entry AR     S aug-cc-pwCV5Z        selected for orbital group  1
 Library entry AR     P aug-cc-pwCV5Z        selected for orbital group  1
 Library entry AR     D aug-cc-pwCV5Z        selected for orbital group  1
 Library entry AR     F aug-cc-pwCV5Z        selected for orbital group  1
 Library entry AR     G aug-cc-pwCV5Z        selected for orbital group  1
 Library entry AR     H aug-cc-pwCV5Z        selected for orbital group  1

1PROGRAM * SEWARD (Integral evaluation for generally contracted gaussian basis sets)     Author: Roland Lindh, 1990

 Geometry written to block  1 of record 700

 Orientation using atomic masses  
 Molecule type: Linear
 Symmetry elements: X,Y,Z
 Rotational constants:       2.3234015      2.3234015      0.0000000 GHz  (calculated with average atomic masses)

 Point group  D2h 



 ATOMIC COORDINATES

 NR  ATOM    CHARGE       X              Y              Z

   1  AR     18.00    0.000000000    0.000000000   -3.118048117
   2  AR     18.00    0.000000000    0.000000000    3.118048117

 NUCLEAR CHARGE:                   36
 NUMBER OF PRIMITIVE AOS:         644
 NUMBER OF SYMMETRY AOS:          464
 NUMBER OF CONTRACTIONS:          434   (  79Ag  +  53B3u +  53B2u +  32B1g +  79B1u +  53B2g +  53B3g +  32Au  )
 NUMBER OF CORE ORBITALS:          10   (   3Ag  +   1B3u +   1B2u +   0B1g +   3B1u +   1B2g +   1B3g +   0Au  )
 NUMBER OF VALENCE ORBITALS:        8   (   2Ag  +   1B3u +   1B2u +   0B1g +   2B1u +   1B2g +   1B3g +   0Au  )


 NUCLEAR REPULSION ENERGY   51.95558052

 EXTRA SYMMETRY OF AOS IN SYMMETRY 1:   1 1 1 1 1 1 1 1 1 1   1 1 1 1 1 1 1 1 1 1   1 1 1 1 2 1 2 1 2 1   2 1 2 1 2 1 2 1 2 1
                                        2 1 2 1 2 1 2 1 2 1   2 1 2 1 2 1 3 2 1 3   2 1 3 2 1 3 2 1 3 2   2 3 1 2 3 1 2 3 1
 EXTRA SYMMETRY OF AOS IN SYMMETRY 2:   1 1 1 1 1 1 1 1 1 1   1 1 1 1 1 1 1 1 1 1   1 2 1 2 1 2 1 2 1 2   1 2 1 2 1 2 1 2 1 2
                                        1 2 1 2 1 2 3 1 2 3   1 2 3
 EXTRA SYMMETRY OF AOS IN SYMMETRY 3:   1 1 1 1 1 1 1 1 1 1   1 1 1 1 1 1 1 1 1 1   1 2 1 2 1 2 1 2 1 2   1 2 1 2 1 2 1 2 1 2
                                        1 2 1 2 1 2 3 1 2 3   1 2 3
 EXTRA SYMMETRY OF AOS IN SYMMETRY 4:   1 1 1 1 1 1 1 1 1 1   1 1 1 1 1 1 1 2 1 2   1 2 1 2 1 2 2 1 2 1   2 1
 EXTRA SYMMETRY OF AOS IN SYMMETRY 5:   1 1 1 1 1 1 1 1 1 1   1 1 1 1 1 1 1 1 1 1   1 1 1 1 2 1 2 1 2 1   2 1 2 1 2 1 2 1 2 1
                                        2 1 2 1 2 1 2 1 2 1   2 1 2 1 2 1 3 2 1 3   2 1 3 2 1 3 2 1 3 2   2 3 1 2 3 1 2 3 1
 EXTRA SYMMETRY OF AOS IN SYMMETRY 6:   1 1 1 1 1 1 1 1 1 1   1 1 1 1 1 1 1 1 1 1   1 2 1 2 1 2 1 2 1 2   1 2 1 2 1 2 1 2 1 2
                                        1 2 1 2 1 2 3 1 2 3   1 2 3
 EXTRA SYMMETRY OF AOS IN SYMMETRY 7:   1 1 1 1 1 1 1 1 1 1   1 1 1 1 1 1 1 1 1 1   1 2 1 2 1 2 1 2 1 2   1 2 1 2 1 2 1 2 1 2
                                        1 2 1 2 1 2 3 1 2 3   1 2 3
 EXTRA SYMMETRY OF AOS IN SYMMETRY 8:   1 1 1 1 1 1 1 1 1 1   1 1 1 1 1 1 1 2 1 2   1 2 1 2 1 2 2 1 2 1   2 1

 Eigenvalues of metric

         1 0.293E-05 0.383E-04 0.392E-03 0.174E-02 0.177E-02 0.201E-02 0.433E-02 0.636E-02
         2 0.383E-04 0.176E-02 0.471E-02 0.159E-01 0.272E-01 0.291E-01 0.338E-01 0.439E-01
         3 0.383E-04 0.176E-02 0.471E-02 0.159E-01 0.272E-01 0.291E-01 0.338E-01 0.439E-01
         4 0.177E-02 0.295E-01 0.340E-01 0.732E-01 0.126E+00 0.127E+00 0.135E+00 0.179E+00
         5 0.292E-05 0.383E-04 0.337E-03 0.106E-02 0.172E-02 0.176E-02 0.217E-02 0.476E-02
         6 0.383E-04 0.175E-02 0.463E-02 0.137E-01 0.189E-01 0.284E-01 0.330E-01 0.395E-01
         7 0.383E-04 0.175E-02 0.463E-02 0.137E-01 0.189E-01 0.284E-01 0.330E-01 0.395E-01
         8 0.176E-02 0.261E-01 0.337E-01 0.700E-01 0.106E+00 0.124E+00 0.126E+00 0.179E+00


 Contracted 2-electron integrals neglected if value below      1.0D-12
 No memory left in getmem. Have:              5601307   Need:               6213369

 GETMEM ERROR IN GETMEM  k2  Allo

  Memory allocation map
  ---------------------

  FldNam   VarTyp            ID   Length     iPos
  - - - - - - - - - - - - - - - - - - - - - - - -
  IGAT  IGAS  INFOF     REAL 17508442716592  1999974*********
  SPHE  HERR  HERW  TMAX  DDX   IMAP?ë   INTE 17508444717908     4851*********
  IX0 ?ë   REAL 17508444722760      162*********
  IMAP?ë   INTE 17508444722923     6602*********
  IX0 ?ë   REAL 17508444729526      196*********
  IMAP?ë   INTE 17508444729723     5635*********
  IX0 ?ë   REAL 17508444735359      173*********
  IMAP?ë   INTE 17508444735533     6337*********
  IX0 ?ë   REAL 17508444741871      211*********
  IMAP?ë   INTE 17508444742083     5027*********
  IX0 ?ë   REAL 17508444747111      180*********
  IMAP?ë   INTE 17508444747292     5501*********
  IX0 ?ë   REAL 17508444752794      210*********
  IMAP?ë   INTE 17508444753005     4041*********
  IX0 ?ë   REAL 17508444757047      176*********
  IMAP?ë   INTE 17508444757224     4627*********
  IX0 ?ë   REAL 17508444761852      197*********
  IMAP?ë   INTE 17508444762050     3317*********
  IX0 ?ë   REAL 17508444765368      162*********
  CFFR?ë   REAL 17508444765531     2268*********
  CFFR?ë   REAL 17508444767800     5488*********
  CFFR?ë   REAL 17508444773289     7266*********
  CFFR?ë   REAL 17508444780556    11816*********
  CFFR?ë   REAL 17508444792373    12600*********
  CFFR?ë   REAL 17508444804974    17640*********
  CFFR?ë   REAL 17508444822615    17248*********
  CFFR?ë   REAL 17508444839864    22064*********
  CFFR?ë   REAL 17508444861929    20412*********
  HERRñl'|  REAL 17508444882342       66*********
  HERWñl'|  REAL 17508444882409       66*********
  CENTPƒÉ  REAL 17508444882476        6*********
  MASSPƒÉ  REAL 17508444882483        2*********
  CHARPƒÉ  REAL 17508444882486        2*********
  MPMC      REAL 17508444882489        6*********
  ISD       INTE 17508444882496      190*********
  ISOS0ˆK  INTE 17508444882687      868*********
  AUXB0ˆK  REAL 17508444883556      512*********
  MEMR0ˆK  REAL 17508444884069     8820*********
  MEMI0ˆK  INTE 17508444892890      882*********
  HRRM  K2  	
 STACK TRACE:

 SEWARD                            0.01      0.01

 GLOBAL ERROR fehler on processor   0                                         
